/*--------------------------------*- C++ -*----------------------------------*\
| =========                 |                                                 |
| \\      /  F ield         | OpenFOAM: The Open Source CFD Toolbox           |
|  \\    /   O peration     | Version:  3.0.0                                 |
|   \\  /    A nd           | Web:      www.OpenFOAM.org                      |
|    \\/     M anipulation  |                                                 |
\*---------------------------------------------------------------------------*/
FoamFile
{
    version     2.0;
    format      ascii;
    class       volSymmTensorField;
    location    "0";
    object      aij;
}
// * * * * * * * * * * * * * * * * * * * * * * * * * * * * * * * * * * * * * //

dimensions      [0 2 -2 0 0 0 0];

internalField   nonuniform List<symmTensor> 
15600
(
(0.0025 -6.2636466514586 -0 0.0025 -0 0.0025)
(-0.203235265077642 -6.25863485189986 2.94404297513434e-17 0.105367632538821 -0 0.105367632538821)
(-1.0465616220988 -6.22968454150114 -0 0.527030811049399 -0 0.527030811049399)
(-2.31872737220893 -6.14929097723803 -0 1.16311368610447 -0 1.16311368610447)
(-3.8073474504204 -5.99946568752443 -0 1.9074237252102 -0 1.9074237252102)
(-4.87983075848989 -5.78009911769082 4.82708095977313e-17 2.44366537924494 -0 2.44366537924494)
(-5.45848425943276 -5.5201556829294 -0 2.73299212971638 -0 2.73299212971638)
(-5.67582666163951 -5.2488417621483 4.76667541858521e-17 2.84166333081976 -0 2.84166333081976)
(-5.64301612282434 -4.98569057906384 4.61256000645973e-17 2.82525806141217 -0 2.82525806141217)
(-5.42418799685059 -4.74285246502511 4.40715237531092e-17 2.7158439984253 -0 2.7158439984253)
(-5.07832559005991 -4.52694577160718 4.17289693118321e-17 2.54291279502996 -0 2.54291279502996)
(-4.74134849405023 -4.33559984085717 -0 2.37442424702511 -0 2.37442424702511)
(-4.45560282838565 -4.16384102164514 2.51054819460217e-17 2.23155141419282 -0 2.23155141419282)
(-4.21417336444588 -4.0079621656926 2.40020018843064e-17 2.11083668222294 -0 2.11083668222294)
(-4.01134580288145 -3.86500801063046 -2.3031852562361e-17 2.00942290144073 -0 2.00942290144073)
(-3.8423413556026 -3.73260147367717 -4.43494141713277e-17 1.9249206778013 -0 1.9249206778013)
(-3.68620598604568 -3.6100696881449 -2.13823259541352e-17 1.84685299302284 -0 1.84685299302284)
(-3.49655453120335 -3.49980969001837 2.0565662265717e-17 1.75202726560167 -0 1.75202726560167)
(-3.26847091617087 -3.40286597785435 1.97215311983646e-17 1.63798545808544 -0 1.63798545808544)
(-3.00275506004968 -3.31987238482974 -0 1.50512753002484 -0 1.50512753002484)
(-2.69753952650522 -3.25151063804641 1.80105195991827e-17 1.35251976325261 -0 1.35251976325261)
(-2.351152086071 -3.19836980894788 -0 1.1793260430355 -0 1.1793260430355)
(-1.99006859027984 -3.15857327983814 -0 0.998784295139919 -0 0.998784295139919)
(-1.63002303380255 -3.1303446577493 -4.74163860479389e-17 0.818761516901276 -0 0.818761516901276)
(-1.26807021815651 -3.11313608631964 -0 0.637785109078256 -0 0.637785109078256)
(-0.901568997853216 -3.10659095874223 -0 0.454534498926608 -0 0.454534498926608)
(-0.52850222157991 -3.11051518763936 -1.47478615389485e-17 0.268001110789955 -0 0.268001110789955)
(-0.149893850225874 -3.1246950850488 -2.94096243159351e-17 0.078696925112937 -0 0.078696925112937)
(0.00250037913949099 -3.13182334272657 4.41706147697835e-17 0.0024998104302545 -0 0.0024998104302545)
(0.00250000000000007 -3.13182332572707 -0 0.00249999999999997 -0 0.00249999999999997)
(0.00249999999999997 -3.13182332572709 1.47235381766716e-17 0.00250000000000002 -0 0.00250000000000002)
(0.00249999999999997 -3.13182332572713 -0 0.00250000000000001 -0 0.00250000000000001)
(0.00250000000000006 -3.13182332572735 -0 0.00249999999999997 -0 0.00249999999999997)
(0.00249999999999997 -3.13182332572689 -0 0.00250000000000002 -0 0.00250000000000002)
(0.00249999999999422 -3.13182332572705 1.472353817646e-17 0.00250000000000289 -0 0.00250000000000289)
(0.00250000000000581 -3.13182332572729 1.47235381767278e-17 0.00249999999999709 -0 0.00249999999999709)
(0.00249999999999998 -3.13182332572696 1.47235381766967e-17 0.00250000000000001 -0 0.00250000000000001)
(0.00249999999999996 -3.13182332572711 -0 0.00250000000000002 -0 0.00250000000000002)
(0.00250000000000002 -3.13182332572727 2.9447076353345e-17 0.00249999999999999 -0 0.00249999999999999)
(0.00250000000001163 -3.13182332572693 2.94470763533455e-17 0.00249999999999418 -0 0.00249999999999418)
(0.00249999999998838 -3.1318233257273 -0 0.00250000000000581 -0 0.00250000000000581)
(0.00249999999999997 -3.13182332572685 -2.94470763535691e-17 0.00250000000000002 -0 0.00250000000000002)
(0.0025 -3.13182332572722 -0 0.0025 -0 0.0025)
(0.0025 -3.13182332572702 1.47235381766639e-17 0.0025 -0 0.0025)
(0.00250000000000007 -3.13182332572707 -0 0.00249999999999997 -0 0.00249999999999997)
(0.00249999999999997 -3.13182332572708 -0 0.00250000000000002 -0 0.00250000000000002)
(0.00249999999999997 -3.13182332572714 -0 0.00250000000000001 -0 0.00250000000000001)
(0.00250000000000006 -3.13182332572715 -1.4723538176672e-17 0.00249999999999997 -0 0.00249999999999997)
(0.0025 -3.13182332572731 -1.47235381766727e-17 0.0025 -0 0.0025)
(0.00249999999999416 -3.13182332572693 2.94470763533455e-17 0.00250000000000292 -0 0.00250000000000292)
(0.00250000000000577 -3.13182332572708 2.94470763535713e-17 0.00249999999999712 -0 0.00249999999999712)
(0.00250000000000007 -3.13182332572708 -0 0.00249999999999997 -0 0.00249999999999997)
(0.00249999999999995 -3.13182332572729 -1.47235381766671e-17 0.00250000000000002 -0 0.00250000000000002)
(0.00249999999999998 -3.13182332572705 -0 0.00250000000000001 -0 0.00250000000000001)
(0.00250000000001162 -3.13182332572689 -1.47235381766725e-17 0.00249999999999419 -0 0.00249999999999419)
(0.00249999999998838 -3.13182332572726 -1.47235381766726e-17 0.00250000000000581 -0 0.00250000000000581)
(0.00250000000000004 -3.13182332572711 -1.47235381766717e-17 0.00249999999999998 -0 0.00249999999999998)
(0.00250000000000002 -3.13182332572716 -0 0.00249999999999999 -0 0.00249999999999999)
(0.0025 -3.13182332572711 -0 0.0025 -0 0.0025)
(0.00249999999999998 -3.13182332572712 -0 0.00250000000000001 -0 0.00250000000000001)
(0.00249999999999997 -3.13182332572719 -0 0.00250000000000002 -0 0.00250000000000002)
(0.00250000000000006 -3.13182332572712 -0 0.00249999999999997 -0 0.00249999999999997)
(0.00249999999999998 -3.13182332572716 -0 0.00250000000000001 -0 0.00250000000000001)
(0.00249999999999996 -3.13182332572731 -0 0.00250000000000002 -0 0.00250000000000002)
(0.0025 -3.13182332572682 1.47235381766723e-17 0.0025 -0 0.0025)
(0.0025 -3.13182332572702 -0 0.0025 -0 0.0025)
(0.00250000000000003 -3.13182332572723 -0 0.00249999999999998 -0 0.00249999999999998)
(0.00249999999999997 -3.13182332572686 -1.47235381766668e-17 0.00250000000000002 -0 0.00250000000000002)
(0.0025 -3.1318233257272 -1.47235381765123e-17 0.0025 -0 0.0025)
(0.00250000000000004 -3.13182332572713 -0 0.00249999999999998 -0 0.00249999999999998)
(0.00250000000000002 -3.13182332572712 -0 0.00249999999999999 -0 0.00249999999999999)
(0.0025 -3.13182332572713 -0 0.0025 -0 0.0025)
(0.00249999999999995 -3.13182332572713 1.47235381766718e-17 0.00250000000000002 -0 0.00250000000000002)
(0.0025 -3.13182332572709 -1.47235381766718e-17 0.0025 -0 0.0025)
(0.00250000000000002 -3.13182332572715 2.94470763533474e-17 0.00249999999999999 -0 0.00249999999999999)
(0.00249999999999996 -3.13182332572711 -0 0.00250000000000002 -0 0.00250000000000002)
(0.0025 -3.13182332572701 -1.47235381766639e-17 0.0025 -0 0.0025)
(0.0025 -3.13182332572703 -0 0.0025 -0 0.0025)
(0.00250000000000003 -3.13182332572706 -0 0.00249999999999998 -0 0.00249999999999998)
(0.00249999999999999 -3.13182332572728 -0 0.00250000000000001 -0 0.00250000000000001)
(0.00249999999999998 -3.13182332572705 2.94470763533429e-17 0.00250000000000001 -0 0.00250000000000001)
(0.00250000000000007 -3.13182332572707 -0 0.00249999999999997 -0 0.00249999999999997)
(0.00249999999999998 -3.13182332572696 -0 0.00250000000000001 -0 0.00250000000000001)
(0.00250000000000002 -3.13182332572732 -0 0.00249999999999999 -0 0.00249999999999999)
(0.0025 -3.13182332572691 -0 0.0025 -0 0.0025)
(0.00249999999999997 -3.13182332572729 -0 0.00250000000000002 -0 0.00250000000000002)
(0.00250000000000003 -3.13182332572708 -0 0.00249999999999998 -0 0.00249999999999998)
(0.0025 -3.13182332572692 1.47235381766728e-17 0.0025 -0 0.0025)
(0.00249999999999993 -3.13182332572727 1.47235381766725e-17 0.00250000000000003 -0 0.00250000000000003)
(0.00250000000000007 -3.13182332572706 -0 0.00249999999999997 -0 0.00249999999999997)
(0.00249999999999993 -3.13182332572707 -2.94470763533431e-17 0.00250000000000003 -0 0.00250000000000003)
(0.00249962086050895 -3.1318233427266 -2.94470765131929e-17 0.00250018956974552 -0 0.00250018956974552)
(0.154893850226232 -3.12469508504866 -0 -0.0736969251131162 -0 -0.0736969251131162)
(0.533502221580303 -3.11051518763971 -1.47478615389482e-17 -0.263001110790152 -0 -0.263001110790152)
(0.906568997853323 -3.10659095874135 -0 -0.449534498926662 -0 -0.449534498926662)
(1.27307021815644 -3.11313608631854 -0 -0.632785109078219 -0 -0.632785109078219)
(1.63502303380259 -3.13034465774834 1.58054620159771e-17 -0.813761516901295 -0 -0.813761516901295)
(1.99506859028082 -3.15857327983883 -1.64305396465055e-17 -0.993784295140408 -0 -0.993784295140408)
(2.35615208607205 -3.19836980894905 -0 -1.17432604303602 -0 -1.17432604303602)
(2.70253952650558 -3.25151063804647 -3.6021039198366e-17 -1.34751976325279 -0 -1.34751976325279)
(3.00775506004824 -3.31987238482849 -0 -1.50012753002412 -0 -1.50012753002412)
(3.27347091616973 -3.40286597785258 3.94430623967146e-17 -1.63298545808487 -0 -1.63298545808487)
(3.50155453120325 -3.4998096900182 -0 -1.74702726560163 -0 -1.74702726560163)
(3.69120598604626 -3.61006968814532 6.41469778624129e-17 -1.84185299302313 -0 -1.84185299302313)
(3.84734135560265 -3.73260147367721 -0 -1.91992067780133 -0 -1.91992067780133)
(4.01634580266432 -3.8650080106404 2.30318525618195e-17 -2.00442290133216 -0 -2.00442290133216)
(4.21917336452942 -4.00796216568539 -2.40020018845699e-17 -2.10583668226471 -0 -2.10583668226471)
(4.46060282859588 -4.16384102163689 -2.5105481946456e-17 -2.22655141429794 -0 -2.22655141429794)
(4.74634849428777 -4.33559984085679 -2.63672728204727e-17 -2.36942424714388 -0 -2.36942424714388)
(5.08332558951878 -4.52694577162284 8.34579386201209e-17 -2.53791279475939 -0 -2.53791279475939)
(5.42918799712571 -4.74285246501219 5.87620316719862e-17 -2.71084399856285 -0 -2.71084399856285)
(5.64801612318529 -4.98569057906226 -3.07504000440835e-17 -2.82025806159264 -0 -2.82025806159264)
(5.68082666094561 -5.24884176215186 3.17778361221465e-17 -2.8366633304728 -0 -2.8366633304728)
(5.46348425976015 -5.52015568292187 -0 -2.72799212988007 -0 -2.72799212988007)
(4.88483075865139 -5.78009911769575 -0 -2.4386653793257 -0 -2.4386653793257)
(3.81234745042541 -5.99946568753285 -0 -1.90242372521271 -0 -1.90242372521271)
(2.3237273719567 -6.14929097723847 -1.50409916413936e-17 -1.15811368597835 -0 -1.15811368597835)
(1.05156162215868 -6.22968454150081 -0 -0.522030811079342 -0 -0.522030811079342)
(0.208235265093231 -6.25863485190094 -2.9440429751351e-17 -0.100367632546616 -0 -0.100367632546616)
(0.0025 -6.26364665145852 -0 0.0025 -0 0.0025)
(0.0025 -0 -0 0.0025 -0 0.0025)
(0.00250000000000004 9.09028632162589e-16 -0 0.00249999999999998 -0 0.00249999999999998)
(0.0025 -0 -0 0.0025 -0 0.0025)
(0.00249999999999969 9.28684370797972e-16 1.45106932937183e-17 0.00250000000000015 -0 0.00250000000000015)
(0.0025 -0 -6.03193761029e-17 0.0025 -0 0.0025)
(0.00249999999999934 -0 -9.30871254804574e-17 0.00250000000000033 -0 0.00250000000000033)
(0.0025 9.96949184978745e-16 -1.55773310152929e-17 0.0025 -0 0.0025)
(0.00249999999999935 -0 -0 0.00250000000000033 -0 0.00250000000000033)
(0.00249999999999874 9.48451531464665e-16 -2.96391103582708e-17 0.00250000000000063 -0 0.00250000000000063)
(0.0025 -9.06233680121617e-16 -2.83198025038005e-17 0.0025 -0 0.0025)
(0.00249999999999943 -0 -2.68164366992163e-17 0.00250000000000029 -0 0.00250000000000029)
(0.00250000000000108 -0 -0 0.00249999999999946 -0 0.00249999999999946)
(0.00249999999999948 -7.74520304952681e-16 -0 0.00250000000000026 -0 0.00250000000000026)
(0.00249999999999951 -7.40514126329805e-16 4.62821328956128e-17 0.00250000000000025 -0 0.00250000000000025)
(0.00249999999999953 7.10610682253716e-16 4.44131676408573e-17 0.00250000000000024 -0 0.00250000000000024)
(0.00249999999999909 -0 -6.41423382448831e-17 0.00250000000000046 -0 0.00250000000000046)
(0.0025 -0 2.06173303803139e-17 0.0025 -0 0.0025)
(0.00249999999999958 6.34583896807923e-16 -3.96614935504952e-17 0.00250000000000021 -0 0.00250000000000021)
(0.0025 -0 1.90179581321106e-17 0.0025 -0 0.0025)
(0.00249999999999961 -5.82194530138385e-16 -0 0.00250000000000019 -0 0.00250000000000019)
(0.00249999999999963 -0 -1.7370970524954e-17 0.00250000000000018 -0 0.00250000000000018)
(0.00250000000000035 -0 1.65687563554155e-17 0.00249999999999982 -0 0.00249999999999982)
(0.00249999999999966 5.07211068919003e-16 -0 0.00250000000000017 -0 0.00250000000000017)
(0.0025 -0 4.57460105009023e-17 0.0025 -0 0.0025)
(0.00250000000000016 -0 -1.47716117368394e-17 0.00249999999999992 -0 0.00249999999999992)
(0.0025 4.61705000655241e-16 -1.44282812704763e-17 0.0025 -0 0.0025)
(0.00250000000000015 4.55373270581074e-16 -1.42304147056586e-17 0.00249999999999992 -0 0.00249999999999992)
(0.00249999999999998 4.54043418920673e-16 -0 0.00250000000000001 -0 0.00250000000000001)
(0.00249999999999999 -4.54618224589148e-16 -1.42068195184109e-17 0.00250000000000001 -0 0.00250000000000001)
(0.0025 -4.54618222133708e-16 2.84136388833567e-17 0.0025 -0 0.0025)
(0.0025 -0 1.42068194416765e-17 0.0025 -0 0.0025)
(0.00249999999999992 -0 1.42068194416772e-17 0.00250000000000004 -0 0.00250000000000004)
(0.0025 -0 -0 0.0025 -0 0.0025)
(0.0025 -0 -1.42068194418043e-17 0.0025 -0 0.0025)
(0.0025 -0 2.84136388829465e-17 0.0025 -0 0.0025)
(0.0025 -4.54618222135402e-16 -0 0.0025 -0 0.0025)
(0.00249999999999996 -0 -1.42068194416999e-17 0.00250000000000002 -0 0.00250000000000002)
(0.00250000000000008 -4.54618222133626e-16 -1.42068194416758e-17 0.00249999999999996 -0 0.00249999999999996)
(0.0025 -0 -0 0.0025 -0 0.0025)
(0.00250000000000004 -0 -1.42068194416762e-17 0.00249999999999998 -0 0.00249999999999998)
(0.0025 -0 -0 0.0025 -0 0.0025)
(0.00249999999999992 -4.5461822213712e-16 1.4206819441785e-17 0.00250000000000004 -0 0.00250000000000004)
(0.0025 4.5461822212883e-16 -0 0.0025 -0 0.0025)
(0.00250000000000003 -0 -0 0.00249999999999999 -0 0.00249999999999999)
(0.00249999999999997 -0 -2.84136388834563e-17 0.00250000000000001 -0 0.00250000000000001)
(0.00249999999999996 -4.54618222133668e-16 -0 0.00250000000000002 -0 0.00250000000000002)
(0.00249999999999997 -0 1.42068194416769e-17 0.00250000000000002 -0 0.00250000000000002)
(0.0025 -0 -1.42068194416772e-17 0.0025 -0 0.0025)
(0.0025 -4.5461822213367e-16 -0 0.0025 -0 0.0025)
(0.0025 -0 -2.84136388833542e-17 0.0025 -0 0.0025)
(0.0025 4.54618222137165e-16 -0 0.0025 -0 0.0025)
(0.00249999999999996 4.5461822212873e-16 -0 0.00250000000000002 -0 0.00250000000000002)
(0.00250000000000008 -0 1.42068194416723e-17 0.00249999999999996 -0 0.00249999999999996)
(0.00249999999999997 -4.54618222135291e-16 1.42068194417278e-17 0.00250000000000002 -0 0.00250000000000002)
(0.0025 -0 -0 0.0025 -0 0.0025)
(0.0025 -0 -0 0.0025 -0 0.0025)
(0.0025 -4.54618222133646e-16 -0 0.0025 -0 0.0025)
(0.0025 -4.54618222133665e-16 -0 0.0025 -0 0.0025)
(0.0025 4.54618222136284e-16 -0 0.0025 -0 0.0025)
(0.0025 -0 -0 0.0025 -0 0.0025)
(0.00249999999999992 -0 1.42068194415954e-17 0.00250000000000004 -0 0.00250000000000004)
(0.0025 -0 -0 0.0025 -0 0.0025)
(0.0025 -4.54618222133667e-16 -0 0.0025 -0 0.0025)
(0.0025 -0 -0 0.0025 -0 0.0025)
(0.0025 -4.54618222133682e-16 -0 0.0025 -0 0.0025)
(0.0025 -0 1.42068194416769e-17 0.0025 -0 0.0025)
(0.00250000000000003 -4.54618222135289e-16 -0 0.00249999999999998 -0 0.00249999999999998)
(0.0025 -4.54618222133495e-16 -0 0.0025 -0 0.0025)
(0.00249999999999997 -0 -0 0.00250000000000002 -0 0.00250000000000002)
(0.0025 -0 -2.84136388835713e-17 0.0025 -0 0.0025)
(0.0025 -4.54618222133663e-16 -0 0.0025 -0 0.0025)
(0.0025 -4.54618222133703e-16 -0 0.0025 -0 0.0025)
(0.0025 -0 -0 0.0025 -0 0.0025)
(0.0025 -4.5461822213367e-16 -0 0.0025 -0 0.0025)
(0.00250000000000008 -0 2.84136388833561e-17 0.00249999999999996 -0 0.00249999999999996)
(0.0025 -0 -0 0.0025 -0 0.0025)
(0.0025 -0 -0 0.0025 -0 0.0025)
(0.0025 -0 -0 0.0025 -0 0.0025)
(0.00250000000000008 4.54618222137175e-16 -2.84136388835734e-17 0.00249999999999996 -0 0.00249999999999996)
(0.00249999999999992 -0 -0 0.00250000000000004 -0 0.00250000000000004)
(0.00250000000000003 -4.54618222133669e-16 -0 0.00249999999999998 -0 0.00249999999999998)
(0.00249999999999992 -0 -0 0.00250000000000004 -0 0.00250000000000004)
(0.0025 -4.54618222133648e-16 1.42068194416765e-17 0.0025 -0 0.0025)
(0.00250000000000004 4.54618222134393e-16 -0 0.00249999999999998 -0 0.00249999999999998)
(0.0025 -0 -0 0.0025 -0 0.0025)
(0.0025 -0 -0 0.0025 -0 0.0025)
(0.0025 -0 -0 0.0025 -0 0.0025)
(0.0025 -4.54618222133671e-16 -0 0.0025 -0 0.0025)
(0.0025 4.54618222133686e-16 -0 0.0025 -0 0.0025)
(0.0025 -4.54618222133677e-16 -2.84136388833548e-17 0.0025 -0 0.0025)
(0.0025 -0 -0 0.0025 -0 0.0025)
(0.00250000000000001 -0 -0 0.00249999999999999 -0 0.00249999999999999)
(0.00250000000000002 -0 -0 0.00249999999999999 -0 0.00249999999999999)
(0.0025 -4.55373270581134e-16 -0 0.0025 -0 0.0025)
(0.0025 4.61705000655336e-16 -0 0.0025 -0 0.0025)
(0.00249999999999984 -0 1.47716117368394e-17 0.00250000000000008 -0 0.00250000000000008)
(0.00250000000000032 -0 -4.57460105008943e-17 0.00249999999999984 -0 0.00249999999999984)
(0.0025 -0 1.58503459037104e-17 0.0025 -0 0.0025)
(0.0025 -0 -1.65687563554123e-17 0.0025 -0 0.0025)
(0.00250000000000037 -0 -0 0.00249999999999981 -0 0.00249999999999981)
(0.00250000000000039 -0 -5.45807372004762e-17 0.00249999999999981 -0 0.00249999999999981)
(0.00250000000000041 -0 -7.60718325284413e-17 0.0024999999999998 -0 0.0024999999999998)
(0.0025 -0 -5.94922403257403e-17 0.0025 -0 0.0025)
(0.00249999999999956 -0 -2.06173303803123e-17 0.00250000000000022 -0 0.00250000000000022)
(0.0025 -0 2.13807794149641e-17 0.0025 -0 0.0025)
(0.00250000000000047 -0 2.2206583819892e-17 0.00249999999999976 -0 0.00249999999999976)
(0.00249999999999901 1.4810282526748e-15 2.31410664480438e-17 0.00250000000000049 -0 0.00250000000000049)
(0.0025 -7.74520304965505e-16 9.68150381206882e-17 0.0025 -0 0.0025)
(0.00249999999999946 8.13397107336383e-16 2.5418659604262e-17 0.00250000000000027 -0 0.00250000000000027)
(0.00249999999999943 -0 -8.04493100943075e-17 0.00250000000000029 -0 0.00250000000000029)
(0.00250000000000121 -0 -9.91193087652989e-17 0.0024999999999994 -0 0.0024999999999994)
(0.00249999999999937 -0 2.96391103592681e-17 0.00250000000000032 -0 0.00250000000000032)
(0.00249999999999935 -0 3.06307999666319e-17 0.00250000000000033 -0 0.00250000000000033)
(0.00250000000000066 -0 -1.55773310156359e-17 0.00249999999999967 -0 0.00249999999999967)
(0.00249999999999934 -0 -4.65435627406953e-17 0.00250000000000033 -0 0.00250000000000033)
(0.00249999999999871 -0 1.50798440257721e-17 0.00250000000000064 -0 0.00250000000000064)
(0.00249999999999969 -9.28684370780081e-16 -1.45106932934388e-17 0.00250000000000015 -0 0.00250000000000015)
(0.00250000000000015 -0 1.42514458691049e-17 0.00249999999999992 -0 0.00249999999999992)
(0.00249999999999996 9.09028632162663e-16 -0 0.00250000000000002 -0 0.00250000000000002)
(0.0025 -9.09236444266449e-16 -0 0.0025 -0 0.0025)
(0.0025 8.77335203548394e-16 1.37083625554437e-17 0.0025 -0 0.0025)
(0.00250000000000011 -0 -0 0.00249999999999994 -0 0.00249999999999994)
(0.00250000000000015 -8.80056317894024e-16 -0 0.00249999999999993 -0 0.00249999999999993)
(0.0025000000000003 -0 -0 0.00249999999999985 -0 0.00249999999999985)
(0.00249999999999938 -0 4.36326405721625e-17 0.00250000000000031 -0 0.00250000000000031)
(0.00249999999999936 -9.57383980245153e-16 -0 0.00250000000000032 -0 0.00250000000000032)
(0.0025 -0 -4.50495163144772e-17 0.0025 -0 0.0025)
(0.0025 -0 4.4286504955764e-17 0.0025 -0 0.0025)
(0.00250000000000122 -9.1414826983862e-16 -8.57014002973706e-17 0.00249999999999939 -0 0.00249999999999939)
(0.0025 -0 4.09441927519074e-17 0.0025 -0 0.0025)
(0.00250000000000055 -8.271689674608e-16 5.16980604663e-17 0.00249999999999972 -0 0.00249999999999972)
(0.00249999999999948 7.84114928761769e-16 -2.45035915238053e-17 0.00250000000000026 -0 0.00250000000000026)
(0.0025 -0 2.33339202792156e-17 0.0025 -0 0.0025)
(0.00250000000000048 7.13938219251104e-16 -2.2310569351597e-17 0.00249999999999976 -0 0.00249999999999976)
(0.00249999999999954 -6.85135698015019e-16 -0 0.00250000000000023 -0 0.00250000000000023)
(0.0025 -0 -6.1844753928907e-17 0.0025 -0 0.0025)
(0.00249999999999958 -0 3.97587543838384e-17 0.00250000000000021 -0 0.00250000000000021)
(0.0025 -6.11897882800761e-16 -0 0.0025 -0 0.0025)
(0.00250000000000039 -0 3.66785058503794e-17 0.0024999999999998 -0 0.0024999999999998)
(0.0025 -5.61463066856997e-16 -3.50914416785623e-17 0.0025 -0 0.0025)
(0.0025 5.3612874225599e-16 1.67540231954997e-17 0.0025 -0 0.0025)
(0.0025 -5.11425037411037e-16 -4.79460972572847e-17 0.0025 -0 0.0025)
(0.0025 -0 3.05813105844643e-17 0.0025 -0 0.0025)
(0.00250000000000031 -0 -4.41346645438063e-17 0.00249999999999984 -0 0.00249999999999984)
(0.00250000000000015 -0 2.85046820199379e-17 0.00249999999999992 -0 0.00249999999999992)
(0.00249999999999985 -0 -0 0.00250000000000007 -0 0.00250000000000007)
(0.00249999999999993 -4.39400178734134e-16 4.11937667563251e-17 0.00250000000000004 -0 0.00250000000000004)
(0.00249999999999994 -0 1.36911365039813e-17 0.00250000000000003 -0 0.00250000000000003)
(0.00250000000000002 -0 1.37083626291042e-17 0.00249999999999999 -0 0.00249999999999999)
(0.0025 -0 -1.3708362555449e-17 0.0025 -0 0.0025)
(0.00249999999999997 -0 -0 0.00250000000000001 -0 0.00250000000000001)
(0.0025 -0 -0 0.0025 -0 0.0025)
(0.00250000000000003 4.38667601774308e-16 -0 0.00249999999999999 -0 0.00249999999999999)
(0.0025 -0 -0 0.0025 -0 0.0025)
(0.0025 -4.38667601768064e-16 1.3708362555252e-17 0.0025 -0 0.0025)
(0.0025 -0 1.37083625554994e-17 0.0025 -0 0.0025)
(0.0025 -0 -1.37083625554716e-17 0.0025 -0 0.0025)
(0.0025 4.38667601774327e-16 -0 0.0025 -0 0.0025)
(0.0025 -0 -0 0.0025 -0 0.0025)
(0.0025 -0 -0 0.0025 -0 0.0025)
(0.00249999999999998 -0 -0 0.00250000000000001 -0 0.00250000000000001)
(0.00250000000000002 4.38667601777663e-16 -1.3708362555552e-17 0.00249999999999999 -0 0.00249999999999999)
(0.0025 -0 2.74167251106034e-17 0.0025 -0 0.0025)
(0.0025 -4.38667601774115e-16 -0 0.0025 -0 0.0025)
(0.00249999999999998 -4.38667601775903e-16 -0 0.00250000000000001 -0 0.00250000000000001)
(0.00250000000000002 4.38667601774354e-16 1.37083625554486e-17 0.00249999999999999 -0 0.00249999999999999)
(0.0025 -4.38667601774322e-16 -0 0.0025 -0 0.0025)
(0.0025 -0 -1.37083625554481e-17 0.0025 -0 0.0025)
(0.0025 -0 -0 0.0025 -0 0.0025)
(0.0025 -0 1.37083625554482e-17 0.0025 -0 0.0025)
(0.0025 -0 -0 0.0025 -0 0.0025)
(0.0025 -4.38667601769581e-16 -1.37083625552994e-17 0.0025 -0 0.0025)
(0.0025 -0 -0 0.0025 -0 0.0025)
(0.0025 8.77335203551769e-16 1.37083625554964e-17 0.0025 -0 0.0025)
(0.0025 -0 -0 0.0025 -0 0.0025)
(0.0025 4.38667601774341e-16 -0 0.0025 -0 0.0025)
(0.0025 -0 -2.74167251108947e-17 0.0025 -0 0.0025)
(0.0025 -0 -0 0.0025 -0 0.0025)
(0.0025 -0 -1.37083625555261e-17 0.0025 -0 0.0025)
(0.0025 -0 -0 0.0025 -0 0.0025)
(0.0025 -0 -0 0.0025 -0 0.0025)
(0.0025 -0 -0 0.0025 -0 0.0025)
(0.0025 -0 -0 0.0025 -0 0.0025)
(0.0025 -0 2.74167251108947e-17 0.0025 -0 0.0025)
(0.0025 4.3866760177437e-16 -1.37083625554491e-17 0.0025 -0 0.0025)
(0.0025 -0 -0 0.0025 -0 0.0025)
(0.0025 4.38667601775913e-16 -0 0.0025 -0 0.0025)
(0.0025 4.38667601774219e-16 1.37083625554443e-17 0.0025 -0 0.0025)
(0.0025 -0 2.74167251105987e-17 0.0025 -0 0.0025)
(0.0025 4.38667601777659e-16 -0 0.0025 -0 0.0025)
(0.0025 4.38667601774367e-16 1.3708362555449e-17 0.0025 -0 0.0025)
(0.0025 4.38667601774337e-16 1.3708362555448e-17 0.0025 -0 0.0025)
(0.0025 -0 2.74167251108947e-17 0.0025 -0 0.0025)
(0.0025 -0 -0 0.0025 -0 0.0025)
(0.00249999999999998 4.38667601774346e-16 -0 0.00250000000000001 -0 0.00250000000000001)
(0.00250000000000002 -0 -0 0.00249999999999999 -0 0.00249999999999999)
(0.0025 4.38667601774094e-16 -0 0.0025 -0 0.0025)
(0.0025 4.38667601769652e-16 2.74167251106033e-17 0.0025 -0 0.0025)
(0.0025 -0 -0 0.0025 -0 0.0025)
(0.0025 -4.38667601774311e-16 2.74167251108945e-17 0.0025 -0 0.0025)
(0.0025 4.38667601774376e-16 -2.74167251108985e-17 0.0025 -0 0.0025)
(0.0025 -0 -0 0.0025 -0 0.0025)
(0.0025 4.38667601774353e-16 1.37083625554485e-17 0.0025 -0 0.0025)
(0.0025 -0 2.74167251109396e-17 0.0025 -0 0.0025)
(0.0025 -0 -0 0.0025 -0 0.0025)
(0.0025 -0 -1.3708362555252e-17 0.0025 -0 0.0025)
(0.0025 -0 -0 0.0025 -0 0.0025)
(0.0025 4.38667601774375e-16 -0 0.0025 -0 0.0025)
(0.0025 -0 2.74167251108945e-17 0.0025 -0 0.0025)
(0.0025 4.38667601774342e-16 -0 0.0025 -0 0.0025)
(0.0025 -4.38667601774311e-16 2.74167251108945e-17 0.0025 -0 0.0025)
(0.00249999999999998 -0 -1.3708362629105e-17 0.00250000000000001 -0 0.00250000000000001)
(0.00250000000000004 -4.38116368127363e-16 -0 0.00249999999999998 -0 0.00249999999999998)
(0.00249999999999993 4.39400178734141e-16 -0 0.00250000000000004 -0 0.00250000000000004)
(0.00249999999999985 -0 -1.39218046120925e-17 0.00250000000000007 -0 0.00250000000000007)
(0.00249999999999985 -0 -2.8504682019937e-17 0.00250000000000008 -0 0.00250000000000008)
(0.0025 -0 -1.47115548479405e-17 0.0025 -0 0.0025)
(0.0025 -0 -0 0.0025 -0 0.0025)
(0.0025 -0 -3.19640648382028e-17 0.0025 -0 0.0025)
(0.0025 5.36128742255986e-16 -0 0.0025 -0 0.0025)
(0.0025 -5.61463066856787e-16 -0 0.0025 -0 0.0025)
(0.00249999999999961 -5.86856093605746e-16 -0 0.0025000000000002 -0 0.0025000000000002)
(0.0025 -6.11897882800785e-16 5.73654265125736e-17 0.0025 -0 0.0025)
(0.0025 -0 1.98793771919201e-17 0.0025 -0 0.0025)
(0.00250000000000044 -0 -2.06149179763035e-17 0.00249999999999978 -0 0.00249999999999978)
(0.0025 -0 2.14104905624478e-17 0.0025 -0 0.0025)
(0.0025 -7.13938219258157e-16 -0 0.0025 -0 0.0025)
(0.0025 -0 -4.66678405591941e-17 0.0025 -0 0.0025)
(0.0025 -7.84114928777041e-16 4.90071830485651e-17 0.0025 -0 0.0025)
(0.0025 -0 -0 0.0025 -0 0.0025)
(0.0025 8.73476112059428e-16 -0 0.0025 -0 0.0025)
(0.00250000000000061 -0 4.28507001501784e-17 0.00249999999999969 -0 0.00249999999999969)
(0.00250000000000063 9.44778772339497e-16 -0 0.00249999999999968 -0 0.00249999999999968)
(0.00249999999999936 -0 9.00990326308359e-17 0.00250000000000032 -0 0.00250000000000032)
(0.00249999999999936 -9.57383980253296e-16 7.47956234572888e-17 0.00250000000000032 -0 0.00250000000000032)
(0.00250000000000062 9.30829665541781e-16 -4.3632640572271e-17 0.00249999999999969 -0 0.00249999999999969)
(0.0025 -0 -1.3999135041043e-17 0.0025 -0 0.0025)
(0.00249999999999985 8.80056317900431e-16 -4.12526399015827e-17 0.00250000000000007 -0 0.00250000000000007)
(0.0025 -8.77132095507374e-16 -0 0.0025 -0 0.0025)
(0.0025 8.77335203548396e-16 -0 0.0025 -0 0.0025)
(0.0025 -1.69312284709774e-15 -0 0.0025 -0 0.0025)
(0.00249999999999996 -8.46362850565318e-16 -0 0.00250000000000002 -0 0.00250000000000002)
(0.00250000000000014 8.49152296841792e-16 -0 0.00249999999999993 -0 0.00249999999999993)
(0.00250000000000029 -0 -0 0.00249999999999986 -0 0.00249999999999986)
(0.0025000000000006 -8.97760792470192e-16 -5.6110049529387e-17 0.0024999999999997 -0 0.0024999999999997)
(0.00250000000000062 9.23095180958574e-16 -7.21168110123886e-17 0.00249999999999969 -0 0.00249999999999969)
(0.0025 9.26432833977967e-16 -0 0.0025 -0 0.0025)
(0.00249999999999939 -0 -4.26855204947066e-17 0.0025000000000003 -0 0.0025000000000003)
(0.00250000000000059 -0 2.75330814285453e-17 0.00249999999999971 -0 0.00249999999999971)
(0.0025 -0 -0 0.0025 -0 0.0025)
(0.00249999999999894 -0 4.98316821028164e-17 0.00250000000000053 -0 0.00250000000000053)
(0.0025 7.55868285820498e-16 -4.72417678637811e-17 0.0025 -0 0.0025)
(0.0025 -7.19834819553631e-16 -0 0.0025 -0 0.0025)
(0.0025 6.88301934454987e-16 -2.15094354517184e-17 0.0025 -0 0.0025)
(0.0025 -0 -6.19276265679466e-17 0.0025 -0 0.0025)
(0.00250000000000042 6.36036201897997e-16 -3.97522626186248e-17 0.00249999999999979 -0 0.00249999999999979)
(0.00250000000000041 6.13360353925482e-16 -5.75025331805139e-17 0.0024999999999998 -0 0.0024999999999998)
(0.0025 -0 -7.37517227563043e-17 0.0025 -0 0.0025)
(0.00249999999999962 -0 1.76845369555268e-17 0.00250000000000019 -0 0.00250000000000019)
(0.0025 5.41464310007987e-16 -1.69207596877496e-17 0.0025 -0 0.0025)
(0.0025 -5.17084126145028e-16 -0 0.0025 -0 0.0025)
(0.0025 9.86626722756971e-16 1.54160425430777e-17 0.0025 -0 0.0025)
(0.00249999999999968 -0 -0 0.00250000000000016 -0 0.00250000000000016)
(0.0025 -0 -1.41934207372968e-17 0.0025 -0 0.0025)
(0.00249999999999985 -0 -1.37514215380467e-17 0.00250000000000007 -0 0.00250000000000007)
(0.00250000000000014 -4.29863286585228e-16 -0 0.00249999999999993 -0 0.00249999999999993)
(0.0025 8.47983231638585e-16 -0 0.0025 -0 0.0025)
(0.00250000000000005 -0 -0 0.00249999999999997 -0 0.00249999999999997)
(0.0025 -0 -0 0.0025 -0 0.0025)
(0.0025 -0 -0 0.0025 -0 0.0025)
(0.00249999999999993 -0 -0 0.00250000000000003 -0 0.00250000000000003)
(0.0025 -4.23280711774435e-16 -0 0.0025 -0 0.0025)
(0.00250000000000007 -0 -0 0.00249999999999996 -0 0.00249999999999996)
(0.0025 4.23280711778181e-16 -2.64550444861363e-17 0.0025 -0 0.0025)
(0.0025 4.23280711768369e-16 -2.64550444855231e-17 0.0025 -0 0.0025)
(0.0025 -4.23280711775985e-16 -0 0.0025 -0 0.0025)
(0.0025 -4.23280711775113e-16 -0 0.0025 -0 0.0025)
(0.0025 -0 -0 0.0025 -0 0.0025)
(0.00249999999999996 -0 -0 0.00250000000000002 -0 0.00250000000000002)