/*--------------------------------*- C++ -*----------------------------------*\
| =========                 |                                                 |
| \\      /  F ield         | OpenFOAM: The Open Source CFD Toolbox           |
|  \\    /   O peration     | Version:  3.0.0                                 |
|   \\  /    A nd           | Web:      www.OpenFOAM.org                      |
|    \\/     M anipulation  |                                                 |
\*---------------------------------------------------------------------------*/
FoamFile
{
    version     2.0;
    format      ascii;
    class       volScalarField;
    location    "0";
    object      ccx;
}
// * * * * * * * * * * * * * * * * * * * * * * * * * * * * * * * * * * * * * //

dimensions      [0 1 0 0 0 0 0];

internalField   nonuniform List<scalar> 
15600
(
0.0400330813441108
0.12008860673469
0.199839191692114
0.278076555890878
0.352740610007525
0.422714026072904
0.488707852010148
0.551974332781044
0.613603058156905
0.674523081538995
0.735551625638931
0.797145455730359
0.859328475413569
0.921992692644805
0.985025994219373
1.04831267367115
1.11179206347995
1.17561824163236
1.24014059793485
1.30575158311806
1.37286159138695
1.44188974477932
1.5131149332411
1.58656568899913
1.66210085903553
1.73945635772234
1.81823279418764
1.89789901514223
1.97791587529836
2.05798203800929
2.13804820069751
2.21811436338573
2.29818052607395
2.37824668876181
2.45831285145025
2.5383790141389
2.6184451768269
2.69851133951506
2.77857750220328
2.8586436648915
2.93870982757972
3.01877599026764
3.09884215295598
3.17890831564465
3.25897447833275
3.33904064102083
3.41910680370905
3.49917296639727
3.5792391290855
3.65930529177372
3.73937145446163
3.81943761714998
3.89950377983865
3.97956994252674
4.05963610521482
4.13970226790304
4.21976843059126
4.29983459327949
4.37990075596748
4.4599669186557
4.54003308134438
4.6200992440326
4.70016540672059
4.78023156940882
4.86029773209703
4.94036389478526
5.02043005747334
5.10049622016143
5.1805623828501
5.26062854553845
5.34069470822637
5.42076087091459
5.50082703360281
5.58089319629103
5.66095935897925
5.74102552166732
5.82109168435543
5.9011578470441
5.98122400973245
6.06129017242036
6.14135633510858
6.22142249779681
6.30148866048503
6.38155482317318
6.46162098586119
6.54168714854983
6.62175331123827
6.70181947392613
6.78188563661435
6.86195179930257
6.9420179619908
7.02208412470173
7.10210098485785
7.18176720581245
7.26054364227774
7.33789914096456
7.41343431100095
7.48688506675898
7.55811025522076
7.62713840861312
7.69424841688201
7.75985940206521
7.82438175836771
7.88820793652011
7.95168732632892
8.01497400578152
8.07800730735651
8.14067152458673
8.20285454426871
8.26444837436091
8.32547691846154
8.38639694184192
8.44802566721852
8.5112921479904
8.57728597392665
8.6472593899917
8.72192344410904
8.80016080830821
8.87991139326531
8.95996691865589
0.0400229729179017
0.12005837306692
0.199790199693996
0.278014927831724
0.352680607286344
0.422674246025574
0.488704080392887
0.552017400753266
0.613699471407099
0.674675647527016
0.73575989646027
0.797407175797284
0.859641299118141
0.922354705032145
0.985435727373482
1.04876912104443
1.11229445785909
1.17616519425057
1.24072932458749
1.30637773276896
1.37351917389235
1.44257109573547
1.51381127852353
1.58726814309003
1.66280109912795
1.74014711469845
1.8189083931618
1.89855590257907
1.97855270614953
2.05859865200804
2.13864459784384
2.21869054367965
2.29873648951545
2.3787824353509
2.45882838118692
2.53887432702314
2.61892027285873
2.69896621869447
2.77901216453027
2.85905811036608
2.93910405620188
3.01915000203738
3.0991959478733
3.17924189370956
3.25928783954524
3.3393337853809
3.4193797312167
3.4994256770525
3.57947162288831
3.65951756872411
3.7395635145596
3.81960946039554
3.89965540623178
3.97970135206746
4.05974729790312
4.13979324373892
4.21983918957473
4.29988513541053
4.3799310812461
4.45997702708191
4.54002297291817
4.62006891875397
4.70011486458955
4.78016081042535
4.86020675626115
4.94025270209696
5.02029864793262
5.1003445937683
5.18039053960455
5.26043648544048
5.34048243127598
5.42052837711178
5.50057432294758
5.58062026878339
5.66066621461919
5.74071216045485
5.82075810629053
5.90080405212678
5.98084999796271
6.0608959437982
6.14094188963401
6.22098783546981
6.30103378130562
6.38107972714135
6.46112567297694
6.54117161881317
6.62121756464919
6.70126351048463
6.78130945632044
6.86135540215624
6.94140134799204
7.02144729385055
7.10144409742102
7.18109160683828
7.25985288530164
7.33719890087213
7.41273185691005
7.48618872147654
7.5574289042646
7.62648082610772
7.69362226723111
7.75927067541258
7.8238348057495
7.88770554214098
7.95123087895563
8.01456427262742
8.07764529496917
8.14035870088217
8.20259282420178
8.26424010353958
8.32532435247351
8.38630052859173
8.4479825992463
8.51129591960765
8.57732575397399
8.64731939271289
8.7219850721682
8.80020980030632
8.87994162693308
8.9599770270821
0.0400124941910283
0.120027031853148
0.19973941297775
0.277951042157076
0.352618406489559
0.422633008720746
0.488700170610751
0.552062046423349
0.613799416538227
0.674833802429287
0.735975796829044
0.79767848341942
0.859965582459506
0.922729978987111
0.98586047025138
1.0492422894243
1.11281525642219
1.17673218335585
1.24133961803616
1.30702682013153
1.37420084558486
1.44327740657983
1.51453313296958
1.58799633011596
1.66352699103873
1.74086317608981
1.81960874126475
1.89923685368695
1.97921286594256
2.05923785434732
2.13926284272938
2.21928783111143
2.29931281949349
2.37933780787519
2.45936279625746
2.53938778463994
2.61941277302178
2.69943776140377
2.77946274978583
2.85948773816789
2.93951272654994
3.01953771493169
3.09956270331387
3.17958769169638
3.25961268007831
3.33963766846022
3.41966265684228
3.49968764522434
3.5797126336064
3.65973762198845
3.7397626103702
3.81978759875238
3.89981258713489
3.97983757551681
4.05986256389873
4.13988755228078
4.21991254066284
4.2999375290449
4.37996251742673
4.45998750580878
4.5400124941913
4.62003748257335
4.70006247095518
4.78008745933724
4.86011244771929
4.94013743610135
5.02016242448327
5.1001874128652
5.1802124012477
5.26023738962989
5.34026237801164
5.42028736639369
5.50031235477575
5.5803373431578
5.66036233153986
5.74038731992177
5.82041230830371
5.90043729668621
5.98046228506839
6.06048727345014
6.1405122618322
6.22053725021425
6.30056223859631
6.38058722697831
6.46061221536014
6.54063720374262
6.62066219212489
6.70068718050659
6.78071216888865
6.86073715727071
6.94076214565276
7.02078713405753
7.10076314631314
7.18039125873534
7.25913682391027
7.33647300896135
7.41200366988411
7.48546686703049
7.55672259342025
7.62579915441521
7.69297317986854
7.7586603819639
7.82326781664422
7.88718474357788
7.95075771057577
8.01413952974952
8.07727002101419
8.14003441754081
8.20232151657965
8.26402420317079
8.32516619757124
8.38620058346061
8.44793795357623
8.5112998293898
8.57736699127881
8.64738159350967
8.72204895784284
8.80026058702259
8.87997296814684
8.95998750580897
0.0400016315983373
0.119994542520805
0.199686765797771
0.277884816163949
0.352553927095211
0.422590260774962
0.488696117602393
0.552108327586404
0.613903022932085
0.674997750982329
0.736199606236291
0.797959729815735
0.860301745236885
0.923119000319295
0.986300772703092
1.04973279135038
1.11335513336886
1.17731994294424
1.24197226833683
1.30769968548249
1.37490748892301
1.44400959166673
1.51528143105438
1.58875119274855
1.66427947446707
1.74160546886859
1.82033474512649
1.89994274998564
1.97989720928209
2.05990047250147
2.13990373569815
2.21990699889482
2.29991026209149
2.37991352528781
2.4599167884847
2.5399200516818
2.61992331487826
2.69992657807486
2.77992984127154
2.85993310446822
2.93993636766489
3.01993963086126
3.09994289405806
3.17994615725518
3.25994942045173
3.33995268364826
3.41995594684494
3.49995921004161
3.57996247323829
3.65996573643496
3.73996899963133
3.81997226282813
3.89997552602525
3.97997878922179
4.05998205241833
4.139985315615
4.21998857881168
4.29999184200835
4.3799951052048
4.45999836840148
4.5400016315986
4.62000489479528
4.70000815799172
4.7800114211884
4.86001468438507
4.94001794758175
5.02002121077829
5.10002447397483
5.18002773717195
5.26003100036876
5.34003426356512
5.4200375267618
5.50004078995847
5.58004405315515
5.66004731635182
5.74005057954835
5.8200538427449
5.90005710594202
5.98006036913882
6.06006363233519
6.14006689553187
6.22007015872854
6.30007342192522
6.38007668512183
6.46007994831828
6.54008321151538
6.62008647471227
6.70008973790859
6.78009300110526
6.86009626430194
6.94009952749862
7.02010279071799
7.10005725001444
7.17966525487359
7.25839453113149
7.33572052553302
7.41124880725153
7.4847185689457
7.55599040833335
7.62509251107706
7.69230031451758
7.75802773166324
7.82268005705583
7.88664486663121
7.95026720864969
8.01369922729779
8.076880999682
8.13969825476342
8.20204027018334
8.26380039376355
8.3250022490182
8.38609697706676
8.44789167241317
8.51130388239814
8.5774097392246
8.64744607290402
8.72211518383598
8.80031323420252
8.88000545747921
8.95999836840166
0.0399903710777476
0.119960863011065
0.199632190000076
0.277816164119649
0.352487085631581
0.422545946849189
0.488691916121056
0.552156304154705
0.61401042471001
0.675167705422629
0.736431614411501
0.798251279071297
0.860650222627903
0.923522272634898
0.986757204721257
1.05024126180143
1.1139147875967
1.17792923390021
1.24262809448763
1.30839719988049
1.37564001869242
1.44476859884603
1.51605714148557
1.58953370819213
1.66505952353595
1.74237495396443
1.82108734458937
1.90067450528734
1.98060662207924
2.06058736425744
2.14056810641294
2.22054884856843
2.30052959072392
2.38051033287907
2.46049107503478
2.54047181719069
2.62045255934597
2.7004333015014
2.7804140436569
2.86039478581239
2.94037552796789
3.02035627012308
3.1003370122787
3.18031775443464
3.26029849659001
3.34027923874536
3.42025998090086
3.50024072305635
3.58022146521185
3.66020220736734
3.74018294952253
3.82016369167816
3.90014443383409
3.98012517598946
4.06010591814482
4.14008666030031
4.2200674024558
4.3000481446113
4.38002888676657
4.46000962892207
4.53999037107801
4.61997111323351
4.69995185538878
4.77993259754427
4.85991333969977
4.93989408185526
5.01987482401062
5.09985556616599
5.17983630832193
5.25981705047755
5.33979779263274
5.41977853478823
5.49975927694373
5.57974001909923
5.65972076125472
5.73970150341007
5.81968224556544
5.89966298772138
5.979643729877
6.0596244720322
6.13960521418769
6.21958595634319
6.29956669849868
6.37954744065411
6.45952818280939
6.53950892496531
6.61948966712102
6.69947040927616
6.77945115143165
6.85943189358715
6.93941263574264
7.01939337792084
7.09932549471274
7.17891265541071
7.25762504603565
7.33494047646413
7.41046629180795
7.48394285851451
7.55523140115404
7.62435998130765
7.69160280011958
7.75737190551244
7.82207076609986
7.88608521240337
7.94975873819864
8.01324279527962
8.07647772736639
8.1393497773724
8.20174872092778
8.26356838558834
8.3248322945779
8.38598957528884
8.44784369584486
8.51130808387949
8.57745405315037
8.64751291436766
8.72218383588027
8.80036781000024
8.88003913698894
8.96000962892225
0.0399786980520465
0.119925949724408
0.199575614933867
0.277744997150925
0.352417795569134
0.422500009577172
0.488687560727784
0.552206038235243
0.614121760906487
0.675343885761402
0.736672121697676
0.798553508608576
0.861011465751957
0.923940317988654
0.987230357179003
1.05076835901736
1.11449494360598
1.17856084498173
1.24330794548905
1.30912026629369
1.37639938319011
1.44555541069016
1.5168612684574
1.59034488944882
1.66586814805317
1.74317262750843
1.82186751392463
1.90143306687961
1.98134202269841
2.06129941882521
2.1412568149293
2.2212142110334
2.30117160713749
2.38112900324123
2.46108639934554
2.54104379545004
2.62100119155392
2.70095858765795
2.78091598376205
2.86087337986614
2.94083077597023
3.02078817207402
3.10074556817824
3.18070296428277
3.26066036038674
3.3406177564907
3.42057515259479
3.50053254869888
3.58048994480297
3.66044734090707
3.74040473701086
3.82036213311508
3.90031952921961
3.98027692532358
4.06023432142753
4.14019171753162
4.22014911363571
4.30010650973981
4.38006390584367
4.46002130194777
4.53997869805231
4.6199360941564
4.69989349026027
4.77985088636436
4.85980828246846
4.93976567857255
5.01972307467651
5.09968047078047
5.17963786688501
5.25959526298923
5.33955265909302
5.4195100551971
5.4994674513012
5.57942484740529
5.65938224350938
5.73933963961333
5.81929703571731
5.89925443182184
5.97921182792606
6.05916922402985
6.13912662013394
6.21908401623804
6.29904141234213
6.37899880844616
6.45895620455004
6.53891360065455
6.61887099675885
6.6988283928626
6.77878578896669
6.85874318507078
6.93870058117487
7.01865797730167
7.09856693312047
7.17813248607545
7.25682737249165
7.33413185194691
7.40965511055126
7.48313873154267
7.55444458930991
7.62360061680996
7.69087973370638
7.75669205451102
7.82143915501834
7.88550505639409
7.9492316409827
8.01276964282187
8.07605968201263
8.13898853424834
8.20144649139051
8.26332787830217
8.32465611423912
8.38587823909237
8.44779396176433
8.51131243927275
8.57749999042239
8.64758220443011
8.72225500284899
8.80042438506645
8.88007405027559
8.96002130194795
0.0399665974100191
0.119889757464159
0.199516967360323
0.277671223128793
0.352345967208506
0.422452389491179
0.488683045784375
0.552257594210128
0.614237175649135
0.675526520069362
0.736921439440139
0.798866809676029
0.861385942254194
0.924373677559651
0.987720842594844
1.05131476535137
1.11509635243758
1.17921559384136
1.24401270144307
1.30986982076871
1.37718656545205
1.44637104576611
1.51769485295068
1.59118578662987
1.66670639481859
1.74399952212264
1.82267626309367
1.90221941675167
1.98210436314613
2.06203755798888
2.14197075280892
2.22190394762895
2.30183714244899
2.38177033726868
2.46170353208893
2.54163672690938
2.62156992172921
2.70150311654918
2.78143631136922
2.86136950618926
2.9413027010093
3.02123589582904
3.1011690906492
3.18110228546967
3.26103548028959
3.34096867510949
3.42090186992953
3.50083506474957
3.5807682595696
3.66070145438964
3.74063464920938
3.82056784402954
3.90050103885002
3.98043423366993
4.06036742848983
4.14030062330986
4.22023381812991
4.30016701294995
4.38010020776976
4.4600334025898
4.53996659741028
4.61989979223032
4.69983298705013
4.77976618187017
4.85969937669021
4.93963257151025
5.01956576633015
5.09949896115006
5.17943215597054
5.2593653507907
5.33929854561044
5.41923174043048
5.49916493525052
5.57909813007056
5.65903132489059
5.73896451971049
5.81889771453041
5.89883090935089
5.97876410417104
6.05869729899078
6.13863049381082
6.21856368863086
6.2984968834509
6.37843007827087
6.4583632730907
6.53829646791115
6.6182296627314
6.69816285755109
6.77809605237113
6.85802924719116
6.9379624420112
7.01789563685395
7.09778058324841
7.17732373690641
7.25600047787744
7.33329360518149
7.40881421337021
7.4823051470494
7.55362895423397
7.62281343454802
7.69013017923136
7.755987298557
7.8207844061587
7.88490364756248
7.94868523464871
8.01227915740603
8.07562632244163
8.13861405774611
8.20113319032306
8.2630785605597
8.32447347993116
8.38576282434972
8.44774240578945
8.51131695421616
8.57754761050838
8.64765403279074
8.72232877687114
8.80048303263999
8.88011024253583
8.96003340258998
0.0399540534868868
0.119852239377953
0.199456171357664
0.277594746549303
0.352271507564383
0.422403024945008
0.488678365446091
0.552311038819914
0.614356818345287
0.67571584477197
0.737179890389553
0.799191587854584
0.861774136910904
0.924822912351913
0.988229295925668
1.05188118815322
1.11571979264528
1.17989432808472
1.24474327469244
1.31064683364242
1.37800258452582
1.44721655995397
1.51855897408034
1.59205748831505
1.66757534897919
1.74485670825685
1.82351463905542
1.9030345728656
1.98289463030346
2.06280273729995
2.14271084427372
2.22261895124749
2.30252705822127
2.38243516519469
2.46234327216868
2.54225137914286
2.62215948611642
2.70206759309013
2.78197570006391
2.86188380703768
2.94179191401145
3.02170002098493
3.10160812795883
3.18151623493304
3.26142434190669
3.34133244888033
3.4212405558541
3.50114866282787
3.58105676980165
3.66096487677542
3.74087298374889
3.82078109072279
3.900689197697
3.98059730467065
4.06050541164428
4.14041351861806
4.22032162559183
4.30022973256561
4.38013783953916
4.46004594651293
4.53995405348715
4.61986216046092
4.69977026743447
4.77967837440825
4.85958648138202
4.93949458835579
5.01940269532943
5.09931080230308
5.17921890927729
5.25912701625119
5.33903512322466
5.41894323019844
5.49885133717221
5.57875944414598
5.65866755111976
5.73857565809339
5.81848376506704
5.89839187204125
5.97829997901515
6.05820808598863
6.1381161929624
6.21802429993617
6.29793240690994
6.37784051388366
6.45774862085722
6.5376567278314
6.61756483480539
6.69747294177881
6.77738104875259
6.85728915572636
6.93719726270014
7.01710536969662
7.09696542713448
7.17648536094466
7.25514329174323
7.33242465102089
7.40794251168503
7.48144102591974
7.5527834400461
7.62199741547426
7.68935316635764
7.75525672530762
7.82010567191534
7.88428020735479
7.94811881184685
8.01177070407521
8.07517708764935
8.1382258630894
8.2008084121445
8.2628201096103
8.32428415522855
8.38564318165357
8.44768896117968
8.51132163455444
8.57759697505455
8.64772849243486
8.72240525345062
8.80054382864264
8.88014776062206
8.96004594651311
0.0399410500440288
0.119813346897031
0.199393148222901
0.277515468409969
0.352194320245126
0.422351852034194
0.488673513654084
0.552366441250019
0.61448084387536
0.675912104955489
0.73744780911974
0.799528263582668
0.862176552257071
0.92528860392064
0.988756375388641
1.05246836068504
1.11636607130356
1.18059792636781
1.24550061100186
1.31145231079809
1.37884849678978
1.44809304781392
1.51945475049244
1.59296112296191
1.66847613543388
1.74574529557428
1.82438372712171
1.90387959047409
1.98371384720352
2.06359594731428
2.14347804740234
2.2233601474904
2.30324224757846
2.38312434766617
2.46300644775444
2.5428885478429
2.62277064793075
2.70265274801875
2.7825348481068
2.86241694819486
2.94229904828292
3.02218114837068
3.10206324845886
3.18194534854735
3.26182744863529
3.34170954872321
3.42159164881126
3.50147374889932
3.58135584898738
3.66123794907544
3.7411200491632
3.82100214925137
3.90088424933987
3.9807663494278
4.06064844951572
4.14053054960378
4.22041264969184
4.3002947497799
4.38017684986773
4.46005894995579
4.53994105004429
4.61982315013235
4.69970525022018
4.77958735030824
4.85946945039629
4.93935155048435
5.01923365057228
5.09911575066021
5.1789978507487
5.25887995083688
5.33876205092464
5.4186441510127
5.49852625110076
5.57840835118882
5.65829045127687
5.73817255136479
5.81805465145273
5.89793675154122
5.9778188516294
6.05770095171717
6.13758305180522
6.21746515189328
6.29734725198133
6.37722935206933
6.45711145215718
6.53699355224564
6.61687565233391
6.69675775242162
6.77663985250968
6.85652195259774
6.9364040526858
7.01628615279656
7.09612040952599
7.17561627287837
7.25425470442581
7.3315238645662
7.40703887703817
7.48054524950763
7.55190695218616
7.62115150321029
7.68854768920197
7.75449938899821
7.81940207363225
7.8836339286965
7.94753163931503
8.01124362461222
8.07471139608063
8.13782344774323
8.20047173641643
8.26255219088011
8.32408789504503
8.38551915612351
8.44763355874956
8.51132648634644
8.57764814796538
8.64780567975414
8.72248453158994
8.80060685177742
8.88018665310297
8.96005894995597
0.0399275702479609
0.11977302967357
0.199327816369876
0.277433286081584
0.352114305327961
0.42229880451328
0.488668484127559
0.552423873220255
0.614609412793381
0.676115554684228
0.737725542460772
0.799877272700477
0.862593709236922
0.925771355125058
0.98930276331338
1.05307704307048
1.11703602505251
1.18132729953443
1.24628569078222
1.31228729496755
1.37972539732065
1.4490016440031
1.52038334181232
1.59389786036656
1.66940992028968
1.74666643438803
1.82528465236215
1.90475556348652
1.9845630743558
2.06441821487443
2.14427335537035
2.22412849586627
2.30398363636219
2.38383877685777
2.4636939173539
2.54354905785023
2.62340419834594
2.7032593388418
2.78311447933772
2.86296961983364
2.94282476032957
3.02267990082519
3.10253504132123
3.18239018181759
3.26224532231339
3.34210046280918
3.4219556033051
3.50181074380102
3.58166588429694
3.66152102479287
3.74137616528849
3.82123130578453
3.90108644628088
3.98094158677668
4.06079672727247
4.14065186776839
4.22050700826431
4.30036214876024
4.38021728925594
4.46007242975186
4.53992757024822
4.61978271074414
4.69963785123984
4.77949299173576
4.85934813223168
4.93920327272761
5.0190584132234
5.09891355371919
5.17876869421555
5.25862383471159
5.33847897520722
5.41833411570314
5.49818925619906
5.57804439669498
5.6578995371909
5.73775467768669
5.81760981818249
5.89746495867885
5.97732009917489
6.05717523967051
6.13703038016643
6.21688552066236
6.29674066115828
6.37659580165414
6.45645094214985
6.53630608264618
6.61616122314231
6.69601636363789
6.77587150413381
6.85572664462973
6.93558178512566
7.01543692564428
7.09524443651356
7.17471534763793
7.25333356561204
7.3305900797104
7.40610213963352
7.47961665818775
7.55099835599697
7.62027460267942
7.68771270503251
7.75371430921785
7.81867270046563
7.88296397494756
7.94692295692958
8.01069723668748
8.07422864487621
8.13740629076338
8.20012272729863
8.26227445753908
8.32388444531628
8.3853905872055
8.44757612677933
8.51133151587297
8.57770119548629
8.6478856946713
8.72256671391834
8.80067218363044
8.88022697032643
8.96007242975204
0.0399135966485444
0.119731235515246
0.199260091223804
0.27734809317522
0.352031359229711
0.422243813710068
0.488663270355638
0.552483409077689
0.614742691534786
0.676326457329432
0.738013449947959
0.800239067014173
0.863026147878308
0.926271790908842
0.989869167025191
1.05370802327879
1.1177305211808
1.18208339179536
1.24709953035987
1.31315286708111
1.38063442131113
1.44994352474455
1.52134595014573
1.59486891317803
1.67037791237128
1.74762131715029
1.82621858106062
1.90566362588503
1.98544341111904
2.06527060443883
2.14509779773592
2.22492499103301
2.3047521843301
2.38457937762685
2.46440657092414
2.54423376422164
2.62406095751852
2.70388815081555
2.78371534411263
2.86354253740972
2.94336973070681
3.02319692400361
3.10302411730081
3.18285131059833
3.2626785038953
3.34250569719226
3.42233289048935
3.50216008378644
3.58198727708353
3.66181447038061
3.7416416636774
3.82146885697461
3.90129605027213
3.9811232435691
4.06095043686605
4.14077763016314
4.22060482346023
4.30043201675732
4.38025921005419
4.46008640335128
4.5399135966488
4.61974078994589
4.69956798324276
4.77939517653985
4.85922236983694
4.93904956313403
5.01887675643098
5.09870394972795
5.17853114302546
5.25835833632268
5.33818552961947
5.41801272291655
5.49783991621364
5.57766710951073
5.65749430280782
5.73732149610477
5.81714868940175
5.89697588269927
5.97680307599647
6.05663026929327
6.13645746259036
6.21628465588744
6.29611184918454
6.37593904248156
6.45576623577844
6.53559342907594
6.61542062237323
6.69524781566998
6.77507500896707
6.85490220226416
6.93472939556124
7.01455658888104
7.09433637411505
7.17378141893946
7.25237868284979
7.3296220876288
7.40513108682205
7.47865404985434
7.55005647525552
7.61936557868894
7.68684713291896
7.7529004696402
7.8179166082047
7.88226947881927
7.94629197672127
8.01013083297566
8.07372820909241
8.13697385212198
8.19976093298493
8.26198655005189
8.32367354267108
8.3852573084641
8.4475165909219
8.51133672964489
8.5777561862895
8.64796864076955
8.72265190682472
8.80073990877649
8.88026876448476
8.96008640335146
0.0398991111563965
0.119687910317873
0.199189885111639
0.277259779404762
0.351945374572562
0.422186808436699
0.488657865588936
0.552545125892866
0.614880852631894
0.676545085910215
0.738311904287251
0.800614114880762
0.863474427991786
0.926790559109129
0.990456319760781
1.05436211814485
1.11845045874849
1.18286718195068
1.24794318329228
1.31405014766682
1.38157674553947
1.45091990934987
1.52234382163506
1.59587553846811
1.67138136478594
1.74861117999587
1.82718672222498
1.90660495319244
1.98635599712436
2.06615421945986
2.14595244177265
2.22575066408545
2.30554888639824
2.38534710871069
2.46514533102369
2.54494355333689
2.62474177564947
2.7045399979622
2.784338220275
2.86413644258779
2.94393466490058
3.02373288721308
3.10353110952599
3.18332933183921
3.26312755415189
3.34292577646455
3.42272399877734
3.50252222109013
3.58232044340292
3.66211866571572
3.74191688802821
3.82171511034113
3.90151333265435
3.98131155496702
4.06110977727968
4.14090799959247
4.22070622190526
4.30050444421805
4.38030266653063
4.46010088884342
4.53989911115665
4.61969733346945
4.69949555578202
4.77929377809481
4.8590920004076
4.9388902227204
5.01868844503306
5.09848666734573
5.17828488965895
5.25808311197186
5.33788133428436
5.41767955659715
5.49747777890995
5.57727600122274
5.65707422353553
5.73687244584819
5.81667066816087
5.89646889047409
5.976267112787
6.0560653350995
6.13586355741229
6.21566177972509
6.29546000203788
6.37525822435061
6.45505644666319
6.53485466897639
6.61465289128939
6.69445111360184
6.77424933591463
6.85404755822743
6.93384578054022
7.01364400287572
7.09339504680764
7.1728132777751
7.25138882000421
7.32861863521414
7.40412446153197
7.47765617836501
7.5490800906502
7.6184232544606
7.68594985233325
7.75205681670778
7.81713281804939
7.88154954125157
7.94563788185521
8.00954368024007
8.07320944089211
8.13652557200851
8.19938588511835
8.2616880957126
8.32345491409029
8.385119147367
8.44745487410672
8.51134213441158
8.57781319156287
8.64805462542671
8.72274022059516
8.80081011488865
8.88031208968214
8.9601008888436
0.0398840950194734
0.119642997995215
0.199117107148696
0.27716823044387
0.351856240045199
0.422127714897526
0.488652262830827
0.552609103559588
0.615024074937216
0.676771723446962
0.738621291837716
0.801002901814386
0.863939129895307
0.927328331295179
0.991064981617447
1.05504017442662
1.11919676975093
1.18367968465686
1.248817741732
1.31498029830116
1.38255358989289
1.45193206179766
1.5233782480725
1.59691903935864
1.67242157654559
1.74963730434247
1.8281903291522
1.90758076399402
1.98730201375051
2.06707020381216
2.14683839385111
2.22660658389006
2.306374773929
2.38614296396761
2.46591115400676
2.54567934404611
2.62544753408485
2.70521572412374
2.78498391416268
2.86475210420163
2.94452029424058
3.02428848427923
3.1040566743183
3.18382486435767
3.2635930543965
3.34336124443531
3.42312943447426
3.50289762451321
3.58266581455215
3.6624340045911
3.74220219462975
3.82197038466882
3.90173857470819
3.98150676474702
4.06127495478583
4.14104314482478
4.22081133486372
4.30057952490267
4.3803477149414
4.46011590498035
4.53988409501973
4.61965228505868
4.69942047509741
4.77918866513635
4.8589568551753
4.93872504521425
5.01849323525306
5.09826142529188
5.17802961533126
5.25779780537032
5.33756599540898
5.41733418544792
5.49710237548687
5.57687056552582
5.65663875556477
5.73640694560358
5.81617513564241
5.89594332568178
5.97571151572084
6.0554797057595
6.13524789579845
6.2150160858374
6.29478427587634
6.37455246591522
6.45432065595397
6.53408884599332
6.61385703603247
6.69362522607107
6.77339341611002
6.85316160614897
6.93292979618792
7.01269798624957
7.09241923600606
7.17180967084788
7.25036269565761
7.32757842345449
7.40308096064144
7.47662175192757
7.54806793820241
7.61744641010718
7.68501970169891
7.75118225826807
7.81632031534321
7.88080323024913
7.94495982557344
8.00893501838341
8.07267166870606
8.13606087010498
8.19899709818474
8.26137870816214
8.32322827655354
8.38497592506167
8.44739089644
8.51134773716969
8.57787228510206
8.64814375995407
8.72283176955605
8.80088289285162
8.88035700200478
8.96011590498053
0.0398685287987959
0.119596440406569
0.199041663120833
0.277073327778242
0.35176384025859
0.422066456593573
0.488646454828375
0.552675424898323
0.615172543854992
0.677006663327702
0.738942013111676
0.801405931114829
0.864420855165464
0.92788580363773
0.991695940537052
1.0557430699013
1.11997042032523
1.18452195174033
1.24972433784042
1.31594452311268
1.38356621894683
1.45298129236987
1.52445056857235
1.59800076670846
1.6734998942485
1.75070101854947
1.82923070105072
1.90859232151495
1.98828268565319
2.0680197432735
2.14775680087109
2.22749385846868
2.30723091606627
2.38696797366352
2.46670503126132
2.5464420888593
2.62617914645669
2.70591620405422
2.78565326165182
2.86539031924941
2.945127376847
3.0248644344443
3.10460149204201
3.18433854964003
3.2640756072375
3.34381266483496
3.42354972243255
3.50328678003014
3.58302383762773
3.66276089522533
3.74249795282263
3.82223501042034
3.90197206801835
3.98170912561582
4.06144618321328
4.14118324081087
4.22092029840847
4.30065735600606
4.38039441360343
4.46013147120103
4.53986852879905
4.61960558639664
4.69934264399402
4.77907970159161
4.8588167591892
4.93855381678679
5.01829087438425
5.09802793198172
5.17776498957974
5.25750204717745
5.33723910477475
5.41697616237234
5.49671321996993
5.57645027756753
5.65618733516512
5.73592439276257
5.81566145036005
5.89539850795806
5.97513556555577
6.05487262315308
6.13460968075067
6.21434673834826
6.29408379594585
6.37382085354338
6.45355791114077
6.53329496873876
6.61303202633656
6.69276908393381
6.77250614153141
6.85224319912899
6.93198025672658
7.01171731434688
7.09140767848512
7.17076929894936
7.24929898145061
7.32650010575158
7.40199923329162
7.47554943142773
7.54701870763019
7.61643378105324
7.68405547688738
7.75027566215965
7.81547804825973
7.88002957967483
7.94425693009876
8.00830405946378
8.0721141963635
8.13557914483483
8.19859406888429
8.26105798688817
8.3229933366728
8.38482745614391
8.44732457510128
8.51135354517214
8.57793354340602
8.64823615974066
8.7229266722217
8.80095833687946
8.88040355959343
8.9601314712012
0.0398523923432848
0.119548177281266
0.198963455362731
0.276974948551901
0.351668055596754
0.42200295422348
0.488640434062959
0.552744175763418
0.615326451581175
0.677250209687887
0.73927448329317
0.801823724519049
0.864920227416239
0.928463697810237
0.99235001332608
1.05647171450169
1.120772412001
1.18539507355914
1.2506641452535
1.3169440703409
1.38461594360193
1.45406895934799
1.52556217130455
1.59912212086214
1.67461771382245
1.75180369963753
1.83030918472231
1.90964093525558
1.98929928235039
2.06900406705967
2.14870885174624
2.22841363643281