/*--------------------------------*- C++ -*----------------------------------*\
| =========                 |                                                 |
| \\      /  F ield         | OpenFOAM: The Open Source CFD Toolbox           |
|  \\    /   O peration     | Version:  3.0.0                                 |
|   \\  /    A nd           | Web:      www.OpenFOAM.org                      |
|    \\/     M anipulation  |                                                 |
\*---------------------------------------------------------------------------*/
FoamFile
{
    version     2.0;
    format      ascii;
    class       volScalarField;
    location    "0";
    object      ccy;
}
// * * * * * * * * * * * * * * * * * * * * * * * * * * * * * * * * * * * * * //

dimensions      [0 1 0 0 0 0 0];

internalField   nonuniform List<scalar> 
15600
(
1.00195548402186
1.00097057324871
0.994974861300155
0.979069405354692
0.950971083730314
0.912370272400837
0.867147087547933
0.818142738010672
0.767094346023792
0.715210636896694
0.663469941481739
0.612403621689316
0.562047825534076
0.512286299218198
0.462987880111736
0.414010547943359
0.365280904553595
0.317011137287255
0.269681377762006
0.223881072622163
0.180329251384849
0.139918065144441
0.103542173944906
0.0719177842753349
0.0456851365664409
0.0254843391726927
0.0119003025991253
0.00537080468541494
0.00391096441557699
0.00391096804371433
0.00391096804371431
0.00391096804371425
0.00391096804371414
0.00391096804371439
0.00391096804371429
0.00391096804371417
0.0039109680437143
0.00391096804371428
0.00391096804371425
0.00391096804371445
0.00391096804371431
0.00391096804371444
0.00391096804371431
0.00391096804371439
0.00391096804371434
0.00391096804371431
0.00391096804371425
0.00391096804371423
0.0039109680437142
0.00391096804371428
0.00391096804371426
0.00391096804371434
0.0039109680437142
0.00391096804371434
0.00391096804371452
0.00391096804371437
0.00391096804371428
0.00391096804371422
0.00391096804371428
0.00391096804371423
0.0039109680437142
0.00391096804371426
0.00391096804371422
0.00391096804371419
0.00391096804371448
0.00391096804371439
0.00391096804371429
0.00391096804371444
0.00391096804371431
0.00391096804371428
0.00391096804371423
0.00391096804371427
0.00391096804371428
0.00391096804371428
0.00391096804371422
0.00391096804371429
0.00391096804371439
0.00391096804371439
0.00391096804371436
0.00391096804371423
0.00391096804371433
0.00391096804371433
0.00391096804371431
0.00391096804371415
0.00391096804371437
0.00391096804371422
0.00391096804371432
0.00391096804371437
0.00391096804371425
0.00391096804371434
0.00391096804371434
0.00391096441557697
0.00537080468541848
0.0119003025991363
0.0254843391727106
0.0456851365664658
0.0719177842753651
0.103542173944941
0.139918065144484
0.180329251384894
0.223881072622214
0.269681377762051
0.317011137287306
0.365280904553646
0.414010547943413
0.462987880111046
0.512286299216969
0.562047825533793
0.612403621690535
0.663469941482094
0.71521063689615
0.767094346024842
0.818142738010891
0.867147087547328
0.912370272401677
0.950971083731649
0.979069405355034
0.994974861299759
1.00097057324864
1.00195548402186
1.0059382457151
1.00495726528926
0.998985478915912
0.983143496601142
0.955157331154706
0.916710620837534
0.871667965849567
0.822859214422273
0.772014550498602
0.720337877117512
0.668803628659598
0.61794106597358
0.567786197990437
0.518223233352906
0.469121531788154
0.420339638995634
0.371804447501982
0.323727293569726
0.276586393037146
0.230968841636362
0.187590800969115
0.147340863599796
0.111110121917125
0.079611924704399
0.0534839566555883
0.0333637707800595
0.0198339425305134
0.0133305020333802
0.011876487816536
0.0118764914301937
0.0118764914301937
0.0118764914301936
0.0118764914301937
0.0118764914301937
0.0118764914301936
0.0118764914301937
0.0118764914301936
0.0118764914301938
0.0118764914301939
0.0118764914301938
0.0118764914301937
0.0118764914301938
0.0118764914301938
0.0118764914301937
0.0118764914301937
0.0118764914301937
0.0118764914301938
0.0118764914301935
0.0118764914301938
0.0118764914301935
0.0118764914301937
0.0118764914301937
0.0118764914301938
0.0118764914301938
0.0118764914301938
0.0118764914301938
0.0118764914301937
0.0118764914301935
0.0118764914301938
0.0118764914301935
0.0118764914301935
0.0118764914301937
0.0118764914301935
0.0118764914301938
0.0118764914301937
0.0118764914301938
0.0118764914301938
0.0118764914301938
0.0118764914301939
0.0118764914301938
0.0118764914301935
0.0118764914301937
0.0118764914301937
0.0118764914301936
0.0118764914301936
0.0118764914301937
0.0118764914301938
0.0118764914301937
0.0118764914301938
0.0118764914301938
0.0118764914301937
0.0118764914301939
0.0118764914301937
0.0118764914301938
0.0118764914301936
0.0118764914301937
0.0118764914301937
0.0118764914301936
0.0118764914301938
0.0118764914301937
0.0118764914301937
0.0118764878165361
0.0133305020333837
0.0198339425305242
0.0333637707800777
0.053483956655613
0.079611924704431
0.111110121917161
0.147340863599835
0.187590800969159
0.23096884163641
0.276586393037195
0.323727293569776
0.371804447502033
0.420339638995685
0.469121531787473
0.518223233351675
0.567786197990161
0.617941065974784
0.668803628659956
0.720337877116969
0.772014550499646
0.822859214422494
0.871667965848957
0.916710620838376
0.955157331156036
0.983143496601481
0.998985478915518
1.00495726528918
1.0059382457151
1.01006690740011
1.00909000130473
1.003143017015
0.987366833688252
0.959496933096162
0.921209968715784
0.876354456551106
0.827748468291497
0.777114995514571
0.725652942333213
0.674332703838021
0.623681362692554
0.573734783621833
0.524377654668254
0.475479877064683
0.426900583223852
0.378566967018145
0.330689482459439
0.283744359415099
0.23831625657011
0.19511836253699
0.155035580980132
0.118955305950182
0.0875879238604619
0.061568470063988
0.0415318486354153
0.0280582144548807
0.0215817859270958
0.0201338112015743
0.0201338148002217
0.0201338148002218
0.0201338148002219
0.0201338148002217
0.0201338148002217
0.0201338148002217
0.0201338148002218
0.0201338148002218
0.0201338148002218
0.0201338148002219
0.0201338148002218
0.0201338148002216
0.0201338148002216
0.0201338148002217
0.0201338148002217
0.0201338148002216
0.0201338148002218
0.0201338148002218
0.0201338148002218
0.0201338148002216
0.0201338148002218
0.0201338148002217
0.0201338148002219
0.0201338148002219
0.0201338148002219
0.0201338148002216
0.0201338148002218
0.0201338148002217
0.0201338148002218
0.0201338148002217
0.0201338148002217
0.0201338148002217
0.0201338148002217
0.0201338148002218
0.0201338148002217
0.0201338148002217
0.0201338148002218
0.0201338148002218
0.0201338148002218
0.0201338148002219
0.0201338148002217
0.0201338148002217
0.0201338148002218
0.0201338148002217
0.0201338148002217
0.0201338148002217
0.0201338148002216
0.0201338148002217
0.0201338148002217
0.0201338148002218
0.0201338148002217
0.0201338148002218
0.0201338148002219
0.0201338148002219
0.0201338148002218
0.0201338148002217
0.0201338148002217
0.0201338148002218
0.0201338148002217
0.0201338148002217
0.0201338148002218
0.0201338148002217
0.0201338112015742
0.0215817859270995
0.0280582144548916
0.0415318486354328
0.0615684700640126
0.0875879238604914
0.118955305950218
0.155035580980174
0.195118362537034
0.238316256570161
0.283744359415145
0.330689482459489
0.378566967018196
0.426900583223904
0.475479877064006
0.524377654667024
0.573734783621563
0.623681362693754
0.674332703838367
0.725652942332674
0.77711499551561
0.827748468291719
0.876354456550511
0.921209968716617
0.959496933097487
0.987366833688586
1.00314301701461
1.00909000130466
1.01006690740011
1.01434681380333
1.01337413129633
1.00745285771105
0.991744883924289
0.96399550738082
0.925874140633791
0.881212626475487
0.832816828898856
0.782402283741777
0.731162713063769
0.680064324609788
0.629631942898508
0.579901283137027
0.530757530349103
0.482071147124235
0.433701874091458
0.385577217519885
0.337906716861133
0.291164543248165
0.24593282902741
0.202921680898069
0.163012178477957
0.127087882010186
0.0958561070414437
0.0699491425520708
0.0499991466654775
0.0365837650376853
0.0301353379995792
0.0286936240235683
0.0286936276066558
0.0286936276066557
0.0286936276066557
0.0286936276066557
0.0286936276066558
0.0286936276066557
0.0286936276066557
0.0286936276066558
0.0286936276066557
0.0286936276066556
0.0286936276066556
0.0286936276066557
0.0286936276066556
0.0286936276066557
0.0286936276066557
0.0286936276066556
0.0286936276066556
0.0286936276066556
0.0286936276066557
0.0286936276066558
0.0286936276066557
0.0286936276066558
0.0286936276066556
0.0286936276066557
0.0286936276066557
0.0286936276066557
0.0286936276066556
0.0286936276066557
0.0286936276066557
0.0286936276066558
0.0286936276066556
0.0286936276066556
0.0286936276066558
0.0286936276066557
0.0286936276066557
0.0286936276066557
0.0286936276066557
0.0286936276066558
0.0286936276066557
0.0286936276066556
0.0286936276066557
0.0286936276066557
0.0286936276066556
0.0286936276066557
0.0286936276066558
0.0286936276066556
0.0286936276066556
0.0286936276066557
0.0286936276066556
0.0286936276066557
0.0286936276066556
0.0286936276066558
0.0286936276066556
0.0286936276066557
0.0286936276066557
0.0286936276066558
0.0286936276066557
0.0286936276066557
0.0286936276066558
0.0286936276066557
0.0286936276066557
0.0286936276066557
0.0286936240235683
0.0301353379995826
0.0365837650376959
0.0499991466654955
0.0699491425520953
0.095856107041474
0.127087882010221
0.163012178477997
0.202921680898113
0.245932829027457
0.291164543248214
0.337906716861183
0.385577217519937
0.43370187409151
0.482071147123555
0.530757530347883
0.579901283136756
0.629631942899707
0.680064324610139
0.731162713063234
0.78240228374281
0.832816828899075
0.881212626474886
0.925874140634622
0.96399550738214
0.991744883924628
1.00745285771065
1.01337413129625
1.01434681380333
1.01878350544283
1.01781520125011
1.01192058027921
0.996283314900759
0.968658877632325
0.930709174560621
0.886248764687984
0.838070857380447
0.787883259720597
0.73687432187855
0.686005910768309
0.635800509863026
0.586293679343199
0.537371119441082
0.48890387468193
0.440752316202541
0.392844274125383
0.345388339849401
0.298856550343189
0.253828419051145
0.211010857843737
0.171280982193853
0.135518378105834
0.104427177790214
0.0786368232700178
0.058776626148547
0.0454216309602187
0.0390022311806073
0.0375670073186963
0.0375670108856537
0.0375670108856536
0.0375670108856537
0.0375670108856534
0.0375670108856536
0.0375670108856535
0.0375670108856536
0.0375670108856536
0.0375670108856535
0.0375670108856535
0.0375670108856534
0.0375670108856536
0.0375670108856537
0.0375670108856535
0.0375670108856536
0.0375670108856536
0.0375670108856535
0.0375670108856534
0.0375670108856535
0.0375670108856535
0.0375670108856536
0.0375670108856536
0.0375670108856536
0.0375670108856536
0.0375670108856535
0.0375670108856535
0.0375670108856534
0.0375670108856535
0.0375670108856535
0.0375670108856536
0.0375670108856535
0.0375670108856535
0.0375670108856536
0.0375670108856535
0.0375670108856535
0.0375670108856536
0.0375670108856535
0.0375670108856535
0.0375670108856536
0.0375670108856535
0.0375670108856536
0.0375670108856534
0.0375670108856535
0.0375670108856535
0.0375670108856535
0.0375670108856534
0.0375670108856537
0.0375670108856535
0.0375670108856534
0.0375670108856535
0.0375670108856536
0.0375670108856533
0.0375670108856536
0.0375670108856535
0.0375670108856535
0.0375670108856537
0.0375670108856534
0.0375670108856536
0.0375670108856535
0.0375670108856535
0.0375670108856535
0.0375670108856537
0.0375670073186964
0.0390022311806107
0.0454216309602293
0.0587766261485645
0.0786368232700421
0.104427177790246
0.135518378105869
0.171280982193891
0.211010857843782
0.253828419051189
0.298856550343241
0.345388339849451
0.392844274125434
0.440752316202596
0.488903874681254
0.537371119439868
0.586293679342923
0.63580050986422
0.686005910768654
0.736874321878017
0.787883259721628
0.838070857380659
0.886248764687394
0.930709174561447
0.968658877633638
0.996283314901093
1.01192058027882
1.01781520125004
1.01878350544283
1.02338272580066
1.02241896031647
1.01655196837871
1.0009880018293
0.973493080810795
0.935721329652516
0.89146939063738
0.843517355221189
0.793565018721802
0.742795162629328
0.692165153912583
0.642195049049074
0.592920247479949
0.544226983542275
0.495986905031107
0.448061036699833
0.400377544401468
0.353144036763753
0.306830338396857
0.262013247887516
0.21939636522448
0.179852696504197
0.144257707917394
0.113312231750744
0.0876427588023257
0.0678756499041456
0.0545832532068234
0.0481939440308552
0.0467654480510773
0.0467654516013137
0.0467654516013135
0.0467654516013135
0.0467654516013135
0.0467654516013135
0.0467654516013133
0.0467654516013135
0.0467654516013135
0.0467654516013134
0.0467654516013134
0.0467654516013135
0.0467654516013135
0.0467654516013134
0.0467654516013135
0.0467654516013134
0.0467654516013135
0.0467654516013134
0.0467654516013136
0.0467654516013134
0.0467654516013134
0.0467654516013136
0.0467654516013136
0.0467654516013134
0.0467654516013135
0.0467654516013134
0.0467654516013135
0.0467654516013135
0.0467654516013135
0.0467654516013134
0.0467654516013134
0.0467654516013132
0.0467654516013132
0.0467654516013134
0.0467654516013135
0.0467654516013135
0.0467654516013134
0.0467654516013135
0.0467654516013135
0.0467654516013133
0.0467654516013135
0.0467654516013135
0.0467654516013134
0.0467654516013134
0.0467654516013134
0.0467654516013133
0.0467654516013134
0.0467654516013135
0.0467654516013133
0.0467654516013134
0.0467654516013133
0.0467654516013134
0.0467654516013132
0.0467654516013134
0.0467654516013134
0.0467654516013136
0.0467654516013134
0.0467654516013135
0.0467654516013134
0.0467654516013134
0.0467654516013135
0.0467654516013136
0.0467654516013137
0.0467654480510773
0.0481939440308586
0.054583253206834
0.0678756499041632
0.0876427588023502
0.113312231750774
0.14425770791743
0.179852696504239
0.219396365224524
0.262013247887563
0.306830338396906
0.353144036763802
0.400377544401523
0.448061036699878
0.495986905030438
0.544226983541067
0.592920247479678
0.642195049050262
0.692165153912931
0.742795162628795
0.79356501872283
0.843517355221399
0.891469390636786
0.935721329653341
0.973493080812102
1.00098800182963
1.01655196837832
1.0224189603164
1.02338272580065
1.02815042875789
1.02719136825248
1.02135301753991
1.00586503514743
0.978504375027968
0.940917094355535
0.896881262595355
0.849163373059172
0.799454915931192
0.748932900021536
0.698550027404017
0.64882383844836
0.599789565931877
0.551333997886562
0.503329407493978
0.455637497080217
0.408186780542224
0.36118384774689
0.315096229886471
0.270497911218059
0.228089058506345
0.188738417918526
0.153317184924976
0.122522771031828
0.096978607726848
0.0773079970024617
0.0640804918754733
0.0577223756011166
0.0563008539828808
0.0563008575157831
0.0563008575157831
0.0563008575157832
0.0563008575157834
0.0563008575157831
0.0563008575157833
0.0563008575157832
0.0563008575157832
0.0563008575157831
0.0563008575157832
0.0563008575157832
0.0563008575157832
0.0563008575157833
0.0563008575157831
0.0563008575157831
0.0563008575157832
0.0563008575157833
0.056300857515783
0.0563008575157832
0.0563008575157832
0.0563008575157832
0.0563008575157833
0.0563008575157832
0.0563008575157833
0.0563008575157833
0.0563008575157831
0.0563008575157832
0.0563008575157831
0.0563008575157833
0.056300857515783
0.0563008575157832
0.0563008575157831
0.0563008575157832
0.0563008575157833
0.0563008575157831
0.0563008575157831
0.0563008575157833
0.0563008575157834
0.0563008575157835
0.0563008575157831
0.0563008575157831
0.0563008575157833
0.0563008575157831
0.0563008575157831
0.0563008575157833
0.0563008575157832
0.0563008575157831
0.0563008575157831
0.056300857515783
0.0563008575157833
0.0563008575157832
0.0563008575157832
0.056300857515783
0.0563008575157832
0.0563008575157833
0.0563008575157832
0.0563008575157831
0.0563008575157834
0.0563008575157833
0.0563008575157832
0.0563008575157833
0.0563008575157831
0.056300853982881
0.05772237560112
0.0640804918754839
0.0773079970024793
0.0969786077268726
0.122522771031859
0.153317184925011
0.188738417918566
0.228089058506388
0.270497911218107
0.315096229886523
0.361183847746937
0.408186780542271
0.455637497080272
0.503329407493307
0.551333997885363
0.599789565931605
0.648823838449543
0.698550027404361
0.748932900021005
0.799454915932215
0.849163373059385
0.896881262594766
0.940917094356354
0.978504375029269
1.00586503514776
1.02135301753953
1.02719136825241
1.02815042875789
1.03309278630204
1.03213860313693
1.02632994292572
1.01092072840287
0.983699247648641
0.946303194805014
0.902491386405023
0.855016219812531
0.805560575970661
0.75529547953609
0.70516879668798
0.655695459297361
0.606910527333577
0.558701362832975
0.510940887291704
0.4634915054432
0.416282091993695
0.369518180742209
0.32366492543308
0.279293392876373
0.237100190823927
0.197949649444569
0.162708537054344
0.132070719097013
0.106656455707168
0.0870858780126205
0.0739256415308929
0.0675998608358442
0.0661855690891545
0.0661855726040883
0.0661855726040885
0.0661855726040884
0.0661855726040883
0.0661855726040887
0.0661855726040884
0.0661855726040884
0.0661855726040884
0.0661855726040883
0.0661855726040884
0.0661855726040886
0.0661855726040884
0.0661855726040886
0.0661855726040882
0.0661855726040883
0.0661855726040884
0.0661855726040885
0.0661855726040885
0.0661855726040883
0.0661855726040882
0.0661855726040886
0.0661855726040883
0.0661855726040882
0.0661855726040885
0.0661855726040884
0.0661855726040885
0.0661855726040883
0.0661855726040883
0.0661855726040885
0.0661855726040885
0.0661855726040883
0.0661855726040884
0.0661855726040885
0.0661855726040885
0.0661855726040883
0.0661855726040883
0.0661855726040885
0.0661855726040886
0.0661855726040883
0.0661855726040883
0.0661855726040883
0.0661855726040885
0.0661855726040885
0.0661855726040882
0.0661855726040884
0.0661855726040886
0.0661855726040884
0.0661855726040882
0.0661855726040883
0.0661855726040886
0.0661855726040884
0.0661855726040883
0.0661855726040885
0.0661855726040884
0.0661855726040884
0.0661855726040884
0.0661855726040883
0.0661855726040886
0.0661855726040884
0.0661855726040884
0.0661855726040884
0.0661855726040885
0.0661855690891546
0.0675998608358476
0.0739256415309034
0.0870858780126381
0.106656455707192
0.132070719097044
0.16270853705438
0.197949649444606
0.237100190823973
0.27929339287642
0.323664925433125
0.369518180742259
0.416282091993746
0.463491505443251
0.510940887291043
0.558701362831773
0.606910527333313
0.65569545929853
0.705168796688329
0.755295479535563
0.805560575971672
0.85501621981275
0.902491386404436
0.946303194805827
0.983699247649932
1.0109207284032
1.02632994292533
1.03213860313686
1.03309278630204
1.03821619651682
1.03726706936796
1.03148918737721
1.01616162642668
0.989084423688886
0.951886603532711
0.908307024549924
0.861083472140614
0.81188990276806
0.761891137714673
0.712030029993444
0.662818807185919
0.614292350081447
0.566338615775935
0.518831197849405
0.471633229187905
0.424673958541161
0.378157824967502
0.332547517653994
0.288411079067366
0.246441427548255
0.207498315479496
0.172443921859273
0.141968436199953
0.116688831137843
0.0972219508095344
0.0841314471200884
0.0778391865409492
0.0764323895373262
0.0764323930336326
0.0764323930336326
0.0764323930336326
0.0764323930336327
0.0764323930336326
0.0764323930336327
0.0764323930336327
0.0764323930336326
0.0764323930336326
0.0764323930336326
0.0764323930336327
0.0764323930336328
0.0764323930336327
0.0764323930336325
0.0764323930336328
0.0764323930336326
0.0764323930336327
0.0764323930336326
0.0764323930336326
0.0764323930336328
0.0764323930336326
0.0764323930336326
0.0764323930336325
0.0764323930336327
0.0764323930336327
0.0764323930336327
0.0764323930336326
0.0764323930336326
0.0764323930336328
0.0764323930336326
0.0764323930336327
0.0764323930336325
0.0764323930336327
0.0764323930336327
0.0764323930336326
0.0764323930336327
0.0764323930336327
0.0764323930336326
0.0764323930336325
0.0764323930336326
0.0764323930336326
0.0764323930336328
0.0764323930336326
0.0764323930336327
0.0764323930336326
0.0764323930336327
0.0764323930336327
0.0764323930336329
0.0764323930336326
0.0764323930336326
0.0764323930336326
0.0764323930336327
0.0764323930336326
0.0764323930336326
0.0764323930336326
0.0764323930336326
0.0764323930336326
0.0764323930336326
0.0764323930336326
0.0764323930336326
0.0764323930336326
0.0764323930336327
0.076432389537326
0.0778391865409525
0.0841314471200988
0.0972219508095523
0.116688831137867
0.141968436199982
0.172443921859308
0.207498315479537
0.246441427548296
0.288411079067412
0.332547517654045
0.378157824967553
0.424673958541208
0.47163322918796
0.518831197848739
0.566338615774747
0.61429235008118
0.662818807187085
0.712030029993783
0.76189113771415
0.811889902769075
0.861083472140823
0.90830702454934
0.951886603533523
0.989084423690177
1.016161626427
1.03148918737683
1.03726706936789
1.03821619651682
1.04352729186453
1.04258340595368
1.03683742975411
1.0215945138058
0.994666874521936
0.957674548492917
0.914335705555245
0.867372984251746
0.818451089788535
0.768728412821786
0.719142609424576
0.670203103572747
0.621944590267196
0.574255643491799
0.527010553551825
0.480073208175358
0.433373243875742
0.387113964882213
0.341755505522917
0.29786277310739
0.256124861388263
0.217396777246713
0.182535942260036
0.152228735385223
0.127088721362753
0.107729336959785
0.0947111204708902
0.0884536079365262
0.087054580252057
0.0870545837290539
0.0870545837290539
0.0870545837290539
0.087054583729054
0.0870545837290539
0.0870545837290537
0.0870545837290538
0.0870545837290538
0.0870545837290539
0.0870545837290538
0.087054583729054
0.087054583729054
0.0870545837290537
0.0870545837290539
0.0870545837290537
0.087054583729054
0.0870545837290539
0.087054583729054
0.087054583729054
0.0870545837290537
0.0870545837290539
0.0870545837290538
0.0870545837290538
0.0870545837290538
0.0870545837290538
0.0870545837290539
0.0870545837290539
0.0870545837290539
0.0870545837290538
0.0870545837290539
0.0870545837290537
0.0870545837290538
0.0870545837290538
0.0870545837290539
0.0870545837290539
0.0870545837290538
0.0870545837290539
0.0870545837290538
0.0870545837290539
0.0870545837290537
0.087054583729054
0.0870545837290537
0.0870545837290538
0.0870545837290539
0.0870545837290538
0.0870545837290539
0.087054583729054
0.0870545837290538
0.0870545837290538
0.0870545837290539
0.0870545837290539
0.0870545837290538
0.0870545837290538
0.0870545837290539
0.0870545837290538
0.0870545837290538
0.0870545837290538
0.0870545837290539
0.0870545837290539
0.0870545837290538
0.0870545837290539
0.0870545837290538
0.087054580252057
0.0884536079365295
0.0947111204709004
0.107729336959802
0.127088721362777
0.152228735385254
0.18253594226007
0.21739677724675
0.256124861388308
0.297862773107433
0.341755505522962
0.387113964882261
0.433373243875798
0.480073208175405
0.527010553551167
0.574255643490617
0.621944590266931
0.670203103573911
0.719142609424917
0.76872841282126
0.818451089789542
0.867372984251956
0.91433570555467
0.957674548493721
0.994666874523216
1.02159451380613
1.03683742975373
1.04258340595361
1.04352729186453
1.04903294777194
1.04809449510644
1.04238159358067
1.02722642366607
1.00045382690293
0.963674522419205
0.920585233733397
0.873892898070228
0.825252630640714
0.775816155897335
0.726515742458619
0.677857907722788
0.629877154048506
0.582462694937689
0.535489542966376
0.488822368372825
0.442391209658082
0.396398194666362
0.351300809256004
0.307660710704341
0.266163028045553
0.227657848798106
0.192997662858484
0.162864899075271
0.137869589487583
0.118621638707746
0.105678357394864
0.099456865815932
0.0980658920868978
0.0980658955438779
0.0980658955438779
0.0980658955438776
0.0980658955438777
0.0980658955438776
0.0980658955438776
0.0980658955438776
0.0980658955438775
0.0980658955438776
0.0980658955438776
0.0980658955438777
0.0980658955438777
0.0980658955438776
0.0980658955438779
0.0980658955438778
0.0980658955438775
0.0980658955438776
0.0980658955438777
0.0980658955438777
0.0980658955438776
0.0980658955438775
0.0980658955438777
0.0980658955438777
0.098065895543878
0.0980658955438776
0.0980658955438775
0.0980658955438776
0.0980658955438776
0.0980658955438776
0.0980658955438776
0.0980658955438776
0.0980658955438777
0.098065895543878
0.0980658955438776
0.0980658955438777
0.0980658955438777
0.0980658955438775
0.0980658955438776
0.0980658955438776
0.0980658955438775
0.0980658955438777
0.0980658955438776
0.0980658955438776
0.0980658955438776
0.0980658955438778
0.0980658955438778
0.0980658955438775
0.0980658955438776
0.0980658955438776
0.0980658955438776
0.0980658955438776
0.0980658955438776
0.0980658955438776
0.0980658955438776
0.0980658955438775
0.0980658955438776
0.0980658955438776
0.0980658955438776
0.0980658955438776
0.0980658955438776
0.0980658955438779
0.0980658955438779
0.0980658920868979
0.0994568658159351
0.105678357394874
0.118621638707763
0.137869589487606
0.162864899075301
0.192997662858519
0.227657848798144
0.266163028045593
0.30766071070439
0.351300809256054
0.396398194666408
0.442391209658132
0.488822368372875
0.535489542965722
0.582462694936514
0.629877154048239
0.677857907723943
0.726515742458956
0.77581615589682
0.825252630641712
0.873892898070438
0.920585233732821
0.963674522420006
1.0004538269042
1.02722642366639
1.04238159358029
1.04809449510637
1.04903294777194
1.0547402915306
1.05380747115201
1.04812885600834
1.03306464677675
1.00645277232439
0.969894292523955
0.927063699286585
0.880651653775781
0.832303330071335
0.7831635422141
0.734158973864975
0.685793129081848
0.638100310472856
0.590970394519184
0.544279142550494
0.497892035998067
0.451739530097148
0.406022533229896
0.361195785743353
0.31781757579757
0.276568922442579
0.238294813602543
0.20384262685076
0.173890696264989
0.149045391808159
0.129912956583943
0.117047355416725
0.110863204333425
0.109480579624967
0.109480583061197
0.109480583061197
0.109480583061197
0.109480583061197
0.109480583061197
0.109480583061196
0.109480583061196
0.109480583061197
0.109480583061197
0.109480583061196
0.109480583061197
0.109480583061197
0.109480583061197
0.109480583061197
0.109480583061197
0.109480583061197
0.109480583061197
0.109480583061197
0.109480583061197
0.109480583061197
0.109480583061197
0.109480583061197
0.109480583061197
0.109480583061197
0.109480583061197
0.109480583061197
0.109480583061197
0.109480583061196
0.109480583061196
0.109480583061197
0.109480583061197
0.109480583061197
0.109480583061197
0.109480583061197
0.109480583061197
0.109480583061197
0.109480583061197
0.109480583061197
0.109480583061197
0.109480583061196
0.109480583061197
0.109480583061197
0.109480583061196
0.109480583061197
0.109480583061197
0.109480583061197
0.109480583061197
0.109480583061197
0.109480583061196
0.109480583061197
0.109480583061197
0.109480583061197
0.109480583061197
0.109480583061196
0.109480583061197
0.109480583061197
0.109480583061196
0.109480583061197
0.109480583061197
0.109480583061197
0.109480583061197
0.109480583061197
0.109480579624967
0.110863204333428
0.117047355416735
0.12991295658396
0.149045391808183
0.173890696265018
0.203842626850795
0.238294813602581
0.276568922442622
0.317817575797615
0.361195785743398
0.406022533229948
0.451739530097194
0.49789203599812
0.544279142549845
0.590970394518013
0.638100310472597
0.685793129082995
0.73415897386531
0.783163542213585
0.832303330072333
0.880651653775984
0.927063699286013
0.969894292524751
1.00645277232566
1.03306464677707
1.04812885600797
1.05380747115194
1.0547402915306
1.06065671152321
1.05972972976501
1.05408665710677
1.03911674098887
1.01267147671424
0.97634191055316
0.933779488779453
0.887658000729031
0.839612315362661
0.7907800831549
0.742082198060874
0.694019040104547
0.646624704771129
0.599789755844027
0.553390730861194
0.507293952181711
0.46143030706315
0.415999439771877
0.371453244545711
0.32834651697799
0.287356015545378
0.249321441742046
0.21508487355959
0.185320400346168
0.160630595877239
0.141617907658435
0.128832832153216
0.122687389443396
0.121313419631696
0.121313423046415
0.121313423046415
0.121313423046415
0.121313423046415
0.121313423046415
0.121313423046415
0.121313423046415
0.121313423046415
0.121313423046415
0.121313423046415
0.121313423046415
0.121313423046415
0.121313423046415
0.121313423046415
0.121313423046415
0.121313423046415
0.121313423046415
0.121313423046415
0.121313423046415
0.121313423046415
0.121313423046415
0.121313423046415
0.121313423046415
0.121313423046415
0.121313423046415
0.121313423046415
0.121313423046415
0.121313423046415
0.121313423046415
0.121313423046415
0.121313423046415
0.121313423046415
0.121313423046415
0.121313423046415
0.121313423046415
0.121313423046415
0.121313423046415
0.121313423046415
0.121313423046415
0.121313423046415
0.121313423046415
0.121313423046415
0.121313423046415
0.121313423046415
0.121313423046415
0.121313423046415
0.121313423046415
0.121313423046415
0.121313423046415
0.121313423046415
0.121313423046415
0.121313423046415
0.121313423046415
0.121313423046415
0.121313423046415
0.121313423046415
0.121313423046415
0.121313423046415
0.121313423046415
0.121313423046415
0.121313423046415
0.121313423046415
0.121313419631696
0.122687389443399
0.128832832153226
0.141617907658452
0.160630595877262
0.185320400346198
0.215084873559624
0.249321441742085
0.287356015545418
0.328346516978037
0.371453244545756
0.415999439771927
0.4614303070632
0.507293952181756
0.553390730860553
0.599789755842864
0.646624704770866
0.69401904010569
0.74208219806121
0.790780083154391
0.839612315363645
0.887658000729235
0.933779488778883
0.976341910553952
1.01267147671549
1.03911674098919
1.0540866571064
1.05972972976494
1.06065671152321
1.06678986678798
1.06586893754274
1.0602627094951
1.04539054101907
1.01911799048928
0.983025723209585
0.940741295995347
0.894921008797213
0.847189048147358
0.798675638524812
0.750295671919676
0.702546289552179
0.655461372138162
0.608932195979689
0.562836103285142
0.517040288166708
0.471476085754094
0.426341829909629
0.382086464477278
0.339261164509785
0.298538271802527
0.260752007737904
0.226738956608821