/*--------------------------------*- C++ -*----------------------------------*\
| =========                 |                                                 |
| \\      /  F ield         | OpenFOAM: The Open Source CFD Toolbox           |
|  \\    /   O peration     | Version:  3.0.0                                 |
|   \\  /    A nd           | Web:      www.OpenFOAM.org                      |
|    \\/     M anipulation  |                                                 |
\*---------------------------------------------------------------------------*/
FoamFile
{
    version     2.0;
    format      ascii;
    class       volScalarField;
    location    "0";
    object      ccz;
}
// * * * * * * * * * * * * * * * * * * * * * * * * * * * * * * * * * * * * * //

dimensions      [0 1 0 0 0 0 0];

internalField   nonuniform List<scalar> 
15600
(
-4.50814446765757e-18
4.79601003082834e-18
0
0
0
0
-2.56805427562162e-18
4.95914982900486e-18
-1.68846410698653e-15
-1.64411182537028e-15
-6.48283099393981e-18
0
-5.85986861795772e-18
-5.5118116333004e-18
0
5.18708348768958e-18
1.7316949145501e-18
0
-6.13357391526997e-18
0
5.70523936119217e-18
-2.62967633542555e-18
0
7.25912195401711e-18
0
0
-2.05990544024535e-16
-2.13920040289611e-16
2.44681929956996e-18
0
9.63735266077518e-20
-2.3544613998886e-16
-2.40045094123067e-16
0
2.35044576040246e-18
-2.2540722338357e-18
2.44681928704645e-18
0
2.35542513515477e-16
2.38025780857936e-16
0
-9.63735266077512e-20
0
9.63735266077525e-20
0
0
-2.46909248211241e-16
-2.4928471536947e-16
-9.6373526607752e-20
9.63735266077541e-20
-2.25407223384456e-18
4.60451799421297e-18
-2.40147031509652e-16
-2.2889496944059e-16
2.25407223382724e-18
-2.350445760435e-18
-2.35044576043487e-18
-4.70089152086982e-18
0
0
0
0
4.60451799426207e-18
0
2.35044576043496e-18
0
0
-9.63735266077524e-20
-2.35044576041046e-18
0
2.3504457604349e-18
0
2.30937995521204e-16
4.73048998785838e-16
2.2886560055e-16
0
-9.63735266077535e-20
4.60451799421347e-18
0
2.3554251351548e-16
2.31555871123799e-16
0
0
-6.95496375470828e-18
0
0
0
9.637352660775e-20
9.63735266077519e-20
0
-2.35044576043484e-18
-2.35044577252494e-18
4.69527511442909e-18
-2.35437371627926e-18
4.67521960248136e-18
2.44070306625908e-18
-2.41970731800531e-18
5.12794400557086e-18
8.08358457554172e-18
-9.74106625826385e-20
-1.63911940410398e-18
9.7629565034187e-20
0
-8.28150653176349e-18
0
-3.52601791296696e-18
0
0
-9.81936354201048e-20
-4.16062253942938e-18
2.34747035474423e-18
4.80621282976994e-18
9.85510282197814e-20
5.04604401723605e-18
2.56155605857395e-18
-4.98292339945156e-18
7.00528185856035e-18
0
-4.79648491133458e-18
0
6.71766754659348e-18
0
4.55594905112862e-18
2.0067910699718e-15
1.96875584036329e-15
9.69151456463535e-18
-1.90618613061059e-19
1.90530083070761e-19
1.66520613550813e-15
1.54718086950093e-15
2.05270583227265e-18
0
1.85271439703017e-18
-5.31410670946554e-18
-1.91181413301856e-19
8.3743726130079e-18
-6.69536005095878e-18
-1.91383582660462e-19
1.6472330792007e-18
0
5.51045254635785e-18
2.72840089907974e-18
2.42657873192029e-18
5.05318053338022e-18
2.26143196461024e-18
0
2.06640516110799e-16
2.03927871332794e-16
4.34993233598991e-18
-2.17496615624774e-18
2.36772422179625e-18
2.32750254478405e-16
2.28148776799526e-16
-1.92758065548804e-19
-4.54269037798147e-18
0
-2.36772422179984e-18
-2.36772422179615e-18
-2.23472115656779e-16
-2.23340441130356e-16
0
1.92758065548802e-19
-4.73544844354641e-18
0
-1.92758065548801e-19
0
2.28207564100356e-16
2.32240953514855e-16
0
-2.36772422179635e-18
0
-6.91041459976937e-18
2.23857631787791e-16
2.25595172696242e-16
0
0
-4.73544844359248e-18
0
4.73544844361772e-18
0
1.92758065548805e-19
0
0
0
0
1.927580655488e-19
0
-4.73544844359106e-18
0
-2.36772422181295e-18
0
4.73544844359304e-18
-2.25839839878552e-16
-4.55953504403639e-16
-2.25372775270305e-16
0
0
6.91041459977039e-18
-4.92820650917505e-18
-2.23664873722322e-16
-2.28085824362655e-16
0
-2.17496615624745e-18
0
-6.91041459986479e-18
0
0
0
0
-4.7354484435928e-18
-4.73544844359252e-18
0
0
0
-2.40197562659996e-18
-4.90935193555065e-18
-1.93380157321474e-19
-2.62009354723826e-18
2.5365624214535e-18
0
2.78531158179397e-18
5.62904694200327e-18
-1.94074661528525e-19
-1.94145633904513e-19
-3.27324999185402e-18
0
0
-5.55814319118253e-18
-1.94571081174803e-18
4.10541166437478e-18
-2.36258104052043e-18
1.94880901377082e-19
-7.22894217407666e-18
-4.76956406784231e-18
1.00844780376897e-17
-1.94204538193294e-19
-4.83026188399201e-18
2.37495822153811e-18
0
-4.73544844358845e-18
4.48646651973257e-18
-4.38901913875419e-18
4.40268292580091e-18
-1.95158316681315e-15
-1.88063442223287e-15
9.35140539741856e-18
4.78846602308584e-18
-4.51997248470251e-18
1.9961742383216e-18
-6.64952633373616e-18
-3.95730840106207e-18
-6.00878579900386e-18
1.9100699570561e-19
1.51669536764895e-18
1.83008070836341e-18
4.73400282480648e-18
-1.3303890573984e-18
0
3.19056087439586e-18
-3.06928759828494e-18
-5.12985099596599e-18
5.08531648964727e-18
-2.14891225077189e-18
9.20107472803349e-18
1.92266444055788e-19
-2.32374207609673e-18
-2.29471509164051e-18
4.57743761096921e-18
-2.09865585314643e-18
4.39007015570526e-18
0
4.3900701557049e-18
6.68148446953934e-18
-2.29141431385356e-18
2.29141431380478e-18
-4.19731168375611e-18
-2.2914143138384e-18
0
0
2.29141431383471e-18
-2.29141431383495e-18
2.0986558418861e-18
1.92758471964603e-19
0
0
1.92758471964599e-19
2.29141431383471e-18
-4.390070155705e-18
0
-2.09865584187021e-18
0
-1.92758471964601e-19
0
2.29141431384218e-18
0
0
-1.92758471964603e-19
0
4.19731168376427e-18
-6.48872599753938e-18
-6.48872599753941e-18
0
0
1.92758471964607e-19
-1.92758471964604e-19
0
0
-2.09865584186962e-18
1.92758471964598e-19
0
-4.39007015570526e-18
2.29141431383478e-18
1.92758471964602e-19
0
0
-2.29141431384231e-18
0
1.92758471964605e-19
0
1.92758471964604e-19
-2.29141431383497e-18
0
1.92758471964598e-19
-2.09865584187352e-18
0
-6.87424294141433e-18
0
0
1.92758471964603e-19
0
1.92758471964605e-19
-2.29141432496401e-18
0
-1.92963257335352e-19
-1.93105653738916e-19
-2.37517958882522e-18
4.69785575320936e-18
0
-2.83403716818398e-18
0
0
0
-2.92741716318606e-18
-4.37094923762205e-18
1.38379799547078e-18
1.94266480471261e-19
0
5.55282648544537e-18
-5.82153617233158e-18
2.17331962236362e-18
6.26827376090537e-18
-1.99183789276395e-18
0
-7.0915855435701e-18
2.67934438240175e-18
1.94203974830283e-19
-1.9364400658272e-19
6.50865539511319e-18
-6.68018503433506e-18
0
0
-1.92679551788365e-19
0
0
8.972609389359e-18
2.20811736071349e-18
2.40672072971117e-18
1.98775514468565e-18
-1.90541988683372e-19
-2.01383792875389e-18
-1.71645935171664e-18
-1.90894866162634e-19
9.182533124949e-18
3.48404825044678e-18
-1.91181440019315e-19
3.04289873552327e-18
1.4672069292679e-18
-1.79412692322035e-18
0
0
2.66551360950429e-18
0
0
0
-4.40276240575007e-18
1.92410030637751e-19
0
4.23772878473318e-18
2.21780140799363e-18
0
8.67844669461579e-18
0
-1.92758893493375e-19
-2.21780139704536e-18
-2.21780139699842e-18
-1.92758893493375e-19
0
0
0
-1.92758893493376e-19
1.9275889349337e-19
-2.21780139704268e-18
0
-1.92758893493375e-19
-2.21780139703459e-18
-1.92758893493377e-19
0
0
0
2.21780139702728e-18
0
-2.89384022621394e-16
-2.88321144390344e-16
0
6.65340419108221e-18
0
0
2.0250425035339e-18
6.65340419111635e-18
1.92758893493374e-19
-1.92758893493374e-19
4.43560279407758e-18
0
4.43560279405456e-18
0
-2.41056029052038e-18
4.2428439005756e-18
2.86973462333847e-16
2.86103342991136e-16
2.21780139704271e-18
1.9275889349337e-19
2.21780139702729e-18
2.0250425035339e-18
1.9275889349337e-19
1.92758893493374e-19
-4.43560279406919e-18
-1.92758893493373e-19
4.4356027940116e-18
6.26788640414103e-18
-1.92758893493379e-19
2.21780139702726e-18
0
2.21780139702727e-18
0
0
0
0
2.21780139702739e-18
0
-8.48568780112231e-18
2.21780139702727e-18
0
-1.92817918449024e-19
-1.92963751151983e-19
-4.30617531893989e-18
-2.1052478753834e-18
4.34582981387703e-18
-2.45175209452533e-18
0
-2.66758988248608e-18
-5.37479293398332e-18
2.70738074240186e-18
0
-1.46720692926792e-18
-1.52144936776149e-18
1.77438028065658e-18
3.68162770753291e-18
8.99837337007154e-18
0
-7.62888713571329e-18
1.81904631865208e-18
0
-2.1782863460738e-18
-2.2161012932181e-18
-4.41623472147107e-18
-4.48923435323363e-18
-2.26126688598356e-18
0
0
1.92758893493373e-19
4.00444749496939e-18
0
0
1.99474400488073e-18
1.87993392934749e-18
6.57783640011766e-18
-1.08716607851022e-17
2.48054031736861e-18
0
-5.82277641464785e-18
2.02907890011123e-18
-1.90895095234874e-19
-3.82014513700336e-19
0
-1.33222851763411e-18
-4.78318633121237e-18
-5.65856944718412e-18
-5.82621478266363e-18
2.41921745938277e-18
0
0
0
4.35700259307034e-18
-1.9212428326338e-19
4.06254146287214e-18
0
0
0
-1.92759330850406e-19
2.14679017616656e-18
8.39440137396062e-18
1.92759330705712e-19
0
-2.33954950688955e-18
0
0
0
-6.05485186708837e-18
0
6.24761119779447e-18
1.92759330705717e-19
1.9275933070571e-19
2.14679017614594e-18
-4.29358035233121e-18
0
-1.92759330705714e-19
4.10082102162774e-18
6.05485186708838e-18
-2.14679017616661e-18
1.92759330705715e-19
-1.92759330705716e-19
2.77366629898933e-16
2.77655838784994e-16
-6.24761119781466e-18
0
0
0
-6.05485186708838e-18
0
1.92759330705716e-19
1.95403084544989e-18
-2.14679017617761e-18
2.14679017616673e-18
0
0
0
2.14679017617347e-18
-2.83807000430248e-16
-2.77848598113596e-16
-2.14679017618138e-18
6.05485186708867e-18
1.92759330705716e-19
0
0
0
0
0
-1.92759330705721e-19
0
0
0
-4.10082102162776e-18
6.05485186708834e-18
0
4.2935803523476e-18
0
1.92759330705713e-19
0
0
0
2.14679017616655e-18
0
4.28885160174953e-18
0
-1.93106632547277e-19
4.06254146287215e-18
8.77234332324461e-18
4.35700259306776e-18
1.93648678428331e-19
0
-5.19020068442614e-18
-5.60935533265232e-18
1.94070862123355e-19
-1.94141329576936e-19
0
0
-6.34926958025329e-18
-3.31988940048036e-18
-5.22875598950218e-18
3.67663220825984e-18
1.74613708515518e-18
0
4.58872600454362e-18
-6.40862454912976e-18
0
0
-1.93644457500076e-19
-1.93161419196163e-19
-1.95356630101182e-18
0
3.86744413729795e-18
0
-3.97462543658077e-18
6.15703824801082e-18
-1.91273704756366e-19
0
4.4995221206063e-18
0
-1.76701583065868e-18
-1.90627849900428e-19
0
-1.90895332343104e-19
-6.59171954704013e-18
6.50321726410034e-18
0
-8.67688800275219e-18
-5.45574431194048e-18
0
-5.22631161457382e-18
0
2.30113411787201e-18
-2.00403130864374e-18
-8.9822780796377e-18
-1.92124404842461e-19
2.15217509651716e-18
-1.92410673886303e-19
-2.08128923873021e-18
3.95911502420013e-18
-2.07828873419208e-18
1.88552893989286e-18
0
4.15657744817454e-18
0
0
0
-1.88552893989996e-18
0
4.34933723236897e-18
-2.0782887240874e-18
1.92759784194417e-19
0
1.92759784194421e-19
-3.96381766394057e-18
1.92759784194421e-19
-3.96381766399334e-18
2.0782887240874e-18
0
3.96381766398037e-18
-2.07828872408739e-18
0
6.04210638811052e-18
-1.92759784194423e-19
0
0
0
0
0
0
0
1.92759784194421e-19
-1.92759784194422e-19
-3.96381766400142e-18
0
0
0
3.96381766398009e-18
0
-1.9275978419443e-19
2.07828872406722e-18
1.92759784194417e-19
6.04210638806814e-18
0
-3.96381766398011e-18
1.9275978419442e-19
0
0
2.07828872408647e-18
0
-2.07828872410154e-18
1.92759784194416e-19
4.3493372323692e-18
-3.96381766398008e-18
-1.92759784194421e-19
4.15657744818093e-18
-1.92759784194419e-19
0
3.96381766401332e-18
-2.07828872408733e-18
0
1.92759784194416e-19
0
0
-2.26884452610701e-18
-2.08169836907325e-18
2.107883318501e-18
2.15315365218473e-18
4.23854112977523e-18
0
2.5831665285958e-18
0
-4.81824461799905e-18
0
0
0
-4.24282022833939e-18
-6.06909865080452e-18
1.53025329811611e-18
-6.59513858195982e-18
1.68004527640642e-18
0
0
0
2.21833832497618e-18
0
-3.91074380249525e-18
0
-1.93644695489144e-19
0
-1.88507447670272e-18
6.04210638806338e-18
-9.63867278779134e-20
0
-2.20948328086786e-18
-1.66476404824896e-18
0
1.0276922391795e-17
-3.96959839047284e-18
1.75959083389124e-18
1.69597063457329e-18
0
-1.89849483975176e-18
-1.42850014310407e-18
-6.5521150349468e-18
0
8.68683824234917e-18
0
-1.09027965996594e-17
5.44339903126323e-18
-2.42744395663119e-18
-2.51481428228836e-18
7.23313336747934e-18
3.83676439980308e-19
-1.9198180203454e-19
6.04624388966283e-18
1.92267335842574e-19
0
2.20767190550128e-18
0
1.92760254720054e-19
-1.92760254575377e-19
0
0
1.92760254575371e-19
-2.01220836267927e-18
-1.92760254575372e-19
0
-4.02441672533236e-18
1.92760254575378e-19
1.9276025457537e-19
0
4.0244167253264e-18
0
2.01220836264413e-18
0
0
4.02441672532667e-18
-5.65110457883932e-18
0
0
0
0
0
0
0
-2.20496861723876e-18
1.819448108088e-18
-2.01220836266324e-18
-3.83165647075128e-18
0
5.84386483338367e-18
1.92760254575377e-19
-1.92760254575376e-19
2.01220836266331e-18
-1.92760254575378e-19
0
1.81944810808784e-18
-1.92760254575378e-19
0
0
0
0
0
-4.02441672532652e-18
0
0
-1.92760254575382e-19
0
0
-1.92760254575373e-19
0
0
0
3.83165647075129e-18
1.81944810809077e-18
3.83165647076467e-18
0
0
0
1.9276025457538e-19
-9.86828155874153e-18
1.819448108088e-18
-1.92760254427858e-19
0
0
-1.93107685507504e-19
-1.93246108511695e-19
1.75799157169752e-18
0
0
0
0
0
5.44876887353982e-18
-2.82418306853889e-18
0
-6.05228996405752e-18
5.70649330663317e-18
-3.08504998080797e-18
0
5.31784772289651e-18
5.40824672935649e-18
0
0
-1.78999501220346e-18
1.78444861390163e-18
0
-3.71324407255281e-18
3.84271250972056e-18
0
-1.92760254575362e-19
9.63872157719228e-20
1.65288466115977e-14
1.64814278063505e-14
-1.98305797181701e-18
1.85808694680527e-18
5.91491352732248e-18
1.90621264114684e-19
1.68885355381656e-18
7.27193736568435e-18
7.13985262371466e-18
-3.4825301040624e-18
-2.93088712411965e-18
0
0
1.91181499375952e-19
0
0
2.631040018417e-18
-4.68129858520032e-18
-1.91578740103383e-19
-4.08918929611992e-18
3.89426362292043e-18
1.7638235825645e-18
2.07480736915241e-18
1.92267579835492e-19
-3.56572175605562e-18
3.71000598347888e-18
-5.64612275636218e-18
-1.94846355731399e-18
5.84539064403372e-18
1.73173727149918e-16
1.6626325697728e-16
1.94846354801146e-18
-1.92760742488523e-19
0
-5.65262990156511e-18
1.92760742488536e-19
3.89692709602254e-18
1.92760742488537e-19
0
1.56294206303434e-18
0
1.7557028055044e-18
0
0
0
1.67906618733351e-16
1.75840961824793e-16
0
1.92760742488528e-19
-1.92760742488535e-19
-1.92760742488541e-19
-5.84539064403268e-18
1.75570280552889e-18
1.92760742488532e-19
1.92760742488534e-19
3.70416635353403e-18
1.92760742488535e-19
3.70416635355405e-18
-1.94846354800156e-18
0
0
-5.65262990154543e-18
1.94846354801127e-18
0
1.94846354801132e-18
0
3.89692709602166e-18
1.94846354799284e-18
0
-1.92760742488536e-19
5.65262990154569e-18
0
-5.65262990154536e-18
-1.92760742488531e-19
0
5.45986915905431e-18
0
-1.92760742488532e-19
-3.70416635353412e-18
-1.94846354801141e-18
0
0
1.94846354801423e-18
-1.75570280552938e-18
1.92760742488539e-19
0
1.92760742488533e-19
-3.51140561104554e-18
0
0
3.8969271140435e-18
0
1.95169064617821e-18
0
1.82465948561004e-18
-6.03481183764226e-18
0
0
-6.80888366141845e-18
0
1.93983115510619e-19
7.51303743671641e-18
-2.53567622033008e-18
0
0
-6.27142680928089e-18
4.26631101987659e-18
-6.63261983884628e-18
1.45123231965883e-18
-5.40669575806039e-18
-3.6359686829622e-18
1.9487594365266e-19
0
4.0106355991317e-18
-1.94200836787461e-19
1.98484511343525e-18
-2.14708547779137e-18
-1.92839889576446e-19
-1.92760742488538e-19
-3.48480874416374e-18
-1.59526386385706e-14
-1.58551624433475e-14
-1.72808974636141e-18
-3.58401554961386e-18
1.90850929569535e-19
0
4.00337654732338e-18
0
-3.72961733979809e-18
-1.90764381541156e-19
-1.9089609461142e-19
0
3.1239751172075e-18
-3.01424516082446e-18
-1.91247472127555e-19
-2.44464404004594e-18
-2.35220256783886e-18
0
-2.35203978726706e-18
2.06433370358382e-18
0
0
-1.92124797180458e-19
-1.76059862530419e-18
-1.92411731343457e-19
1.88970291110552e-18
-1.92702905111887e-19
-3.58118228860586e-18
1.51444300690908e-16
-7.29388358750119e-18
-1.68066730925332e-16
1.88697175975218e-18
-3.58118227093457e-18
0
0
-1.88697175975474e-18
0
0
-1.56526932224367e-16
7.48578825809277e-19
1.49607660645574e-16
1.88697175973462e-18
1.92761248598891e-19
0
-5.46815403065744e-18
-1.58413903984119e-16
-1.7543603303899e-16
0
-5.46815403065739e-18
0
5.46815403060395e-18
-1.92761248598895e-19
0
0
0
3.38842102230645e-18
-1.88697175975201e-18
0
3.5811822708864e-18
-1.927612485989e-19
0
-1.88697175975213e-18
0
0
0
0
0
0
-1.88697175976485e-18
0
0
-1.92761248598894e-19
1.88697175975214e-18
3.22295961998895e-16
3.17676363372141e-16
1.88697175975124e-18
-1.69421051113561e-18
-1.47863118421064e-16
-1.53188842915697e-16
0
-1.927612485989e-19
1.69421051115323e-18
0
0
1.88697175972858e-18
-1.92761248598898e-19
0
0
-5.46815403065751e-18
0
0
0
5.28440430116267e-18
0
0
-2.00980195966841e-18
0
0
0
-4.32092235338416e-18
-2.45090457411646e-18
-1.94065133361573e-19
1.94134841768212e-19
2.72880285612988e-18
3.02039306291336e-18
1.94330388071871e-19
1.04442529291083e-18
-1.50445680583011e-18
0
-1.02398488645728e-17
0
0
-3.68782442758839e-18
-1.94591728981559e-19
0
-1.93645463371433e-19
-7.18235353141471e-18
1.92840415451807e-19
0
0
-5.09610416128401e-18
1.63943618942905e-18
-1.6672098301239e-18
0
-1.77341889886197e-18
-1.39593982707576e-18
-3.49067113290934e-18
-1.90545996313457e-19
1.61328671325752e-18
3.05734918615798e-18
-2.02270774134621e-18
-2.76302850918552e-18
0
2.72833439164695e-18
1.91247445715817e-19
2.54813886172106e-18
4.7270629592066e-18
-9.27904228850557e-18
-2.08336310788462e-18
0
2.09268026774099e-18
2.01213059042224e-18
-2.13674843509167e-18
-1.92268095332001e-19
0
1.83030107201784e-18
0
1.92761773742215e-19
-1.51188243098481e-16
-1.52926047284252e-16
-1.8276533941857e-18
1.92761773597558e-19
6.92509002960418e-18
0
0
-1.92761773597556e-19
0
0
1.56478441507438e-16
-2.16215903269302e-19
-1.47224887868187e-16
0
0
0
1.8276533941857e-18
0
0
3.46254501477364e-18
0
0
0
1.82765339418517e-18
0
0
-3.46254501477382e-18
0
-1.63489162058801e-18
3.46254501479207e-18
0
-1.63489162057913e-18
0
1.92761773597556e-19
1.63489162058812e-18
-3.462545014774e-18
-1.92761773597559e-19
0
1.82765339418529e-18
1.8276533941684e-18
0
0
1.8276533941857e-18
0
5.29019840895952e-18
-3.09687099773709e-16
-3.10181554963754e-16
-1.82765339418479e-18
0
1.4955335147897e-16
3.12070549251387e-16
1.60891608421609e-16
1.82765339418569e-18
0
0
-1.59748224749182e-16
-1.58549433541205e-16
-1.92761773597556e-19
3.4625450147738e-18
0
0
-3.46254501477367e-18
-8.75274346534618e-18
0
-3.4684543637964e-18
-1.85321483391711e-18
3.78409868875756e-18
-3.69837963081018e-18
0
-1.93647570080884e-19
-1.99091252743587e-18
0
-1.93980582285425e-19
2.26784003118703e-18
2.55096355400787e-18
5.08114441310312e-18
0
-2.64294969955657e-18
0
-1.45001864147791e-18
0
1.94770513340354e-19
0
1.94020401976978e-18
3.35957375373918e-18
0
0
2.05450130695014e-18
0
0
-1.92761773597561e-19
4.92578561195706e-18
1.76994284049929e-18
-1.77432653660216e-18
4.82544406404892e-18
0
0
3.61625762641769e-18
1.49131118953326e-18
-3.81093494080463e-19
3.81261675743382e-19
-1.47316257591281e-18
7.178429178382e-18
2.472182267794e-18
0
1.91181549624878e-19
2.54681342640694e-18
-1.91308317384929e-19
-4.75568580991984e-18
-2.28971692420574e-18
-1.91578337409331e-19
2.11178599559529e-18
-1.91837977968544e-19
-5.65164648830549e-18
7.35396886201776e-16
7.56013240488174e-16
0
0
3.53701320457792e-18
0
-1.92762318202786e-19
1.92762318202794e-19
0
0
0
-1.92762318202789e-19
1.57766934304582e-18
1.92762318202795e-19
0
-1.77043166124287e-18
1.96319397944571e-18
1.7704316612429e-18
-5.11853266556081e-18
-5.11853266547703e-18
-6.69620200856247e-18
-1.92762318202797e-19
0
0
-3.54086332248581e-18
3.34810100428295e-18
0
5.11853266556107e-18
1.92762318202791e-19
0
-1.92762318202789e-19
-1.57766934304019e-18
-1.92762318202791e-19
0
0
4.92577034734913e-18
6.6962020085311e-18
-1.77043166123421e-18
-1.77043166125141e-18
0
-5.11853266552587e-18
0
3.15533868607998e-18
-3.34810100429366e-18
0
-1.92762318202794e-19
-1.92762318202786e-19
0
-5.11853266552581e-18
1.77043166124289e-18
0
-1.92762318202796e-19
0
1.77043166124207e-18
-1.92762318202794e-19
-6.69620200861258e-18
-1.57467459593551e-16
-1.5691640450405e-16
-6.69620200856596e-18
0
0
1.52541689246768e-16
1.58376245012989e-16
0
0
0
-1.77043166124281e-18
0
0
-4.9202294903271e-18
1.77340866032732e-18
1.9311003717177e-19
0
-1.8842191510081e-18
0
1.9364732360298e-19
1.92008616351006e-18
1.93883210648545e-19
4.1964880421898e-18
4.76104412525421e-18
-2.46625310226653e-18
4.90532090506028e-18
1.94251255456531e-19
0
-2.8576044877887e-18
-1.59202473462483e-18
3.14096581746386e-18
1.35978338375218e-18
-1.4317600467971e-18
0
8.56408704318545e-18
1.70966594389162e-18
-3.72194313165162e-18
3.60425475655756e-18
0
6.69472335643272e-18
0
0
0
3.24542990959982e-18
4.84734323571542e-18
-1.41618146080741e-18
0
0
-1.6206059135811e-18
0
2.99578546234731e-18
-1.41961533112222e-18
0
0
0
2.35762589319903e-18
2.07951658440174e-18
-2.19040851410702e-18
2.10795744600397e-18
0
-1.93724590503678e-18
0
-3.53701392211661e-18
0
-7.3909746566547e-16
-7.01843277552789e-16
1.54587393217908e-18
1.71772203290703e-18
-3.234073775713e-18
0
0
-1.92762883161189e-19
0
0
4.76017168895294e-18
1.71523248505783e-18
0
1.92762883161187e-19
0
0
0
-1.92762883161198e-19
-1.92762883161188e-19
-1.927628831612e-19
0
0
-7.11055776236142e-16
-7.14504987362567e-16
3.23770208699631e-18
0
-1.92762883161187e-19
0
1.71523248506304e-18
4.95293457207372e-18
0
-7.14100715440014e-16
-7.18044775403227e-16
0
0
-1.52246960192592e-18
-4.95293457204975e-18
1.92762883161196e-19
4.76017168893856e-18
1.92762883161193e-19
0
0
-1.71523248507865e-18
-6.28264129085187e-18
0
0
7.20576119619053e-16
7.17649779555589e-16
1.92762883161198e-19
0
0
0
0
-6.66816705715039e-18
0
0
1.92762883161192e-19
0
0
1.927628831612e-19
0
0
-3.23770208695447e-18
-1.92762883161186e-19
-3.23770208699613e-18
0
-1.71523248507878e-18
0
0
-7.98906749236111e-18
0
0
-6.90647766905548e-18
1.93383214853444e-19
-1.93515591795739e-19
-1.93647068148429e-19
3.70352584696813e-18
-1.74336373004334e-18
1.93977865208631e-19
-2.10795744600435e-18
0
0
2.55187493130761e-18
2.64999287154802e-18
0
2.6937048274425e-18
4.06420892375323e-18
-4.49367819360848e-18
3.32940200609981e-18
1.94860438334486e-19
6.60291186177101e-18
1.64816731098494e-18
0
1.93646319342018e-19
0
0
0
0
-1.92683844656341e-19
6.27696131493679e-18
4.68339035475847e-18
3.48301449534171e-18
-3.17768676868569e-18
-1.59083566411758e-18
-3.31360352846395e-18
-3.21065009050565e-18
1.63387389592446e-18
0
-2.40508432595498e-18
-5.13897846269575e-18
0
2.65495895258073e-18
0
-2.3028928417935e-18
2.22361300277099e-18
0
1.86803761388676e-18
-2.16925351296991e-18
0
-1.82609894711027e-18
-1.76609754461897e-18
4.96316590749138e-18
1.29935479969611e-18
6.27247842483269e-18
-1.92705106049662e-19
-6.45517419345499e-18
6.26241069422518e-18
0
0
0
0
-1.92763469248884e-19
-1.92763469248875e-19
-1.92763469248876e-19
0
-1.66198440818081e-18
0
4.6004262860449e-18
-1.92763469248872e-19
-3.13120534708275e-18
0
0
6.93648757894667e-16
6.90274799540873e-16
0
1.66198440818082e-18
-6.26241069422518e-18
0
0
0
0
6.90517552547505e-16
6.85587212875698e-16
0
0
0
-1.66198440817271e-18
0
0
0
0
4.79318975529349e-18
-1.66198440818078e-18
0
6.2624106942229e-18
-1.92763469248878e-19
-6.88855568144194e-16
-6.90964638187536e-16
0
-1.46922093893179e-18
0
1.92763469248878e-19
1.66198440818585e-18
0
0
6.06964722501868e-18
0
7.9243951024059e-18
-1.66198440818082e-18
1.9276346924887e-19
-4.60042628605134e-18
-1.46922093893711e-18
1.92763469248883e-19
0
1.66198440818088e-18
0
0
0
0
0
6.27329869444172e-18
3.17664761734551e-18
1.93249197422839e-19
-1.76735573937234e-18
-1.82763265727497e-18
0
5.35756307829514e-18
0
1.93976433715537e-19
1.94058546331877e-19
-1.94127385356487e-19
4.5721064960435e-18
1.94246743049026e-19
1.94320772294003e-19
-2.47398498045603e-18
0
1.94633349335822e-19
1.94758244414013e-19
-1.94839471136939e-19
-6.63584491232318e-18
3.18167132830055e-18
-3.76143577885658e-18
1.94197088912032e-19
0
0
0
6.26241069421884e-18
0
0
3.22766796892199e-18
1.63631616649125e-18
-3.18134274131289e-18
-4.59485208975785e-18
-1.72368748294797e-18
-4.51365626164397e-18
1.26430047806934e-18
0
1.90766692557645e-19
-2.50171670774531e-18
-1.91008682913088e-19
0
-4.57232785932215e-18
-2.1100508440624e-18
6.29795285917067e-18
0
1.68917604271911e-18
3.7941291758987e-18
0
6.96511401892141e-18
-1.91982008595604e-19
0
0
0
0
0
0
0
3.22123699773242e-18
3.02847292045947e-18
-4.44632734205326e-18
0
-1.92764077272708e-19
3.22123699774218e-18
-1.92764077272719e-19
4.44632734205309e-18
0
6.54543694481776e-16
6.68662665908552e-16
-1.92764077272707e-19
0
2.83570884318561e-18
6.05694584093871e-18
-1.92764077272704e-19
-4.25356326477994e-18
-8.89265468410627e-18
1.61061849886623e-18
0
-5.86418176368782e-18
6.05694584086072e-18
6.05694584091751e-18
0
0
-3.22123699773244e-18
0
-4.4463273420533e-18
0
-1.80338257613121e-18
4.44632734203034e-18
0
0
1.92764077272709e-19
6.63243585088671e-16
6.67468296560651e-16
1.41785442159827e-18
0
-6.05694584086111e-18
-6.24970991823263e-18
1.61061849886609e-18
0
1.8033825761388e-18
-7.474800262512e-18
-2.8357088431871e-18
-3.02847292046933e-18
1.61061849886545e-18
0
-1.92764077272714e-19
0
6.78193185613656e-16
6.62272337449645e-16
-1.61061849886624e-18
0
0
-6.69300530920766e-16
-6.62133131445412e-16
1.2250903443208e-18
0
3.22123699773254e-18
0
4.44632736311116e-18
0
0
-1.93112041431052e-19
-1.93249781275696e-19
0
-3.34638890683096e-18
0
3.63832117014177e-18
-1.93879991105575e-19
3.76129706524416e-18
0
-1.94125354066754e-19
2.1100508440618e-18
0
-2.8643584487252e-18
-1.94405556269423e-19
5.00343341558338e-18
-2.44165108602725e-18
2.5862983882052e-18
-1.45484963482083e-18
4.90335999000227e-18
4.59918888644362e-18
0
0
0
1.42147747351699e-18
0
0
9.63911811736647e-20
-2.73584974672243e-18
-1.92356906205643e-19
2.97906072860373e-18
0
1.85811986817946e-18
0
-4.5393060567538e-18
-4.20481148921434e-18
1.90633618956679e-19
-2.54016222959777e-18
0
-7.08480238785027e-18
6.97880660806331e-18
1.92027011928604e-18
2.03393168632127e-18
0
-2.08009694248334e-18
1.91472342266054e-19
-1.9157772985364e-19
0
-1.7788680100817e-18
-9.50873102462288e-18
0
0
-9.10501367463454e-18
1.92560091310235e-19
-5.85240061268479e-18
-2.7366071214784e-18
2.54384239988258e-18
-8.78811544807859e-18
3.31490123216904e-18
-6.33085423016147e-16
-6.51391551832574e-16
5.85874363197881e-18
0
2.92937181603035e-18
5.47321421590897e-18
5.85874363205194e-18
-6.44610145572251e-16
-6.40924443110251e-16
0
-3.12213652406992e-18
0
-5.85874363207093e-18
0
-1.92764708071654e-19
1.92764708071641e-19
8.59535074000641e-18
0
-5.85874363209176e-18
-2.54384239985514e-18
-2.73660710795352e-18
0
5.85874363205166e-18
0
0
0
0
-1.92764708071648e-19
-2.92937181601133e-18
-2.92937181604064e-18
0
0
-6.44802910280298e-16
-6.35474051730067e-16
-1.92764708071653e-19
0
6.38751401933889e-16
6.41107786666731e-16
0
8.59535074000694e-18
0
0
2.9293718160263e-18
0
1.92764708071642e-19
5.85874363199724e-18
0
-1.92764708071639e-19
-6.39329696064394e-16
-6.4930350548757e-16
-5.85874363205205e-18
0
0
6.389441666399e-16
1.29017319777243e-15
6.40445123396781e-16
0
0
0
-3.12213653732486e-18
2.92631810620634e-18
-3.85941127654199e-19
0
-1.80757538803332e-18
-1.65860638804402e-18
3.23510486461885e-18
-1.97432280059839e-18
-1.93770146334098e-19
-7.14137310052223e-18
0
1.94054892948721e-19
4.11852494579048e-18
7.99394684665691e-16
7.86575886866536e-16
0
2.49233369428901e-18
0
0
0
-5.99607560748714e-18
-1.94847356484595e-19
-1.67211252066011e-18
-1.67099332852628e-18
1.94195393595482e-19
1.5872483322786e-18
-8.61662987167278e-18
0
0
0
-3.0256361789475e-18
2.64742639381542e-18
1.91858702516297e-19
0
0
2.65653384754283e-18
4.18971846603843e-18
-5.591528976832e-18
0
-7.53311032244643e-18
2.32307832861055e-18
4.23808812496e-18
8.85920651115771e-18
2.03512919968104e-18
0
1.89144749712351e-18
-4.02424444813261e-18
0
1.67474800756591e-18
8.39229068437557e-18
0
1.91982077841493e-19
1.79796390106527e-18
2.93482466210958e-18
0
0
0
-3.02653911954597e-18
2.83377374380621e-18
1.92765362518064e-19
0
6.24780810322945e-16
6.12251720216687e-16
5.4747821250239e-18
-1.92765362518065e-19
1.92765362518065e-19
0
5.66754748761255e-18
0
0
5.28201676261437e-18
6.1685778517309e-16
6.29274079306852e-16
3.02653910633328e-18
0
0
0
0
5.47478212509449e-18
-1.92765362518065e-19
0
0
0
3.02653910632452e-18
0
0
0
-2.83377374382038e-18
0
0
0
5.66754748761255e-18
0
5.66754748761223e-18
-1.92765362518074e-19
1.9276536251806e-19
-8.30855586889862e-18
-6.19306028191778e-16
-6.26473754201795e-16
-2.64100838128822e-18
0
0
5.66754748761251e-18
-5.6675474876129e-18
1.92765362518067e-19
-1.92765362518073e-19
-8.5013212313413e-18
1.92765362518053e-19
-2.64100838128822e-18
-3.02653910632451e-18
-5.66754748761251e-18
-5.66754748761261e-18
0
-2.83377374381556e-18
0
-6.14024011440196e-16
-6.19981979994376e-16
0
-2.83377374380665e-18
-2.8337737438062e-18
-3.85530724739028e-19
-1.92824833463953e-19
-2.83880061088871e-18
3.06754135487509e-18
-8.80741736691341e-18
0
0
-6.31669519500253e-18
0
0
-1.94207587320563e-18
0
4.36525821861558e-18
-7.32672015288196e-16
-8.0046606310303e-16
-1.94312642203406e-19
-2.60334735868918e-18
-1.94501531300167e-19
-5.28413787210408e-18
0
2.89531427928925e-18
0
4.66028657495983e-18
-1.94575619091451e-19
1.03155245692355e-17
5.57181447573598e-18
0
0
0
2.64518142175881e-18
0
5.49434408591476e-18
-1.91858797253939e-19
5.74602447987488e-18
0
-5.86816322020623e-18
8.4536899172955e-18
-2.60141038699997e-18
-4.97328553237441e-18
-2.73955299613581e-18
2.42937207121962e-18
0
-2.04245041596716e-18
-7.31527455556313e-16
-7.4644432793656e-16
-3.64639320077614e-18
1.91382117979058e-19
-1.9147203110582e-19
0
-3.28110904591461e-18
-1.66832032003667e-18
3.21464378974944e-18
0
0
0
-2.74604179487718e-18
0
0
3.85532083038439e-19
0
-5.48310989745773e-18
-5.48310989745739e-18
0
2.74155494869494e-18
1.92766041519214e-19
0
5.0975778144193e-18
-5.09757781441929e-18
1.92766041519221e-19
0
0
-6.05348117130229e-16
-5.99131540165133e-16
-5.48310989747472e-18
5.09757781441929e-18
0
5.0975778144193e-18
-3.85532083038443e-19
5.09757781441927e-18
-1.92766041519215e-19
-1.92766041519225e-19
5.29034385593657e-18
0
0
1.92766041519214e-19
0
-2.54878890720946e-18
0
-3.85532083038438e-19