/*--------------------------------*- C++ -*----------------------------------*\
| =========                 |                                                 |
| \\      /  F ield         | OpenFOAM: The Open Source CFD Toolbox           |
|  \\    /   O peration     | Version:  3.0.0                                 |
|   \\  /    A nd           | Web:      www.OpenFOAM.org                      |
|    \\/     M anipulation  |                                                 |
\*---------------------------------------------------------------------------*/
FoamFile
{
    version     2.0;
    format      ascii;
    class       volVectorField;
    location    "0";
    object      cellCentres;
}
// * * * * * * * * * * * * * * * * * * * * * * * * * * * * * * * * * * * * * //

dimensions      [0 1 0 0 0 0 0];

internalField   nonuniform List<vector> 
15600
(
(0.0400330813441108 1.00195548402186 -4.50814446765757e-18)
(0.12008860673469 1.00097057324871 4.79601003082834e-18)
(0.199839191692114 0.994974861300155 0)
(0.278076555890878 0.979069405354692 0)
(0.352740610007525 0.950971083730314 0)
(0.422714026072904 0.912370272400837 0)
(0.488707852010148 0.867147087547933 -2.56805427562162e-18)
(0.551974332781044 0.818142738010672 4.95914982900486e-18)
(0.613603058156905 0.767094346023792 -1.68846410698653e-15)
(0.674523081538995 0.715210636896694 -1.64411182537028e-15)
(0.735551625638931 0.663469941481739 -6.48283099393981e-18)
(0.797145455730359 0.612403621689316 0)
(0.859328475413569 0.562047825534076 -5.85986861795772e-18)
(0.921992692644805 0.512286299218198 -5.5118116333004e-18)
(0.985025994219373 0.462987880111736 0)
(1.04831267367115 0.414010547943359 5.18708348768958e-18)
(1.11179206347995 0.365280904553595 1.7316949145501e-18)
(1.17561824163236 0.317011137287255 0)
(1.24014059793485 0.269681377762006 -6.13357391526997e-18)
(1.30575158311806 0.223881072622163 0)
(1.37286159138695 0.180329251384849 5.70523936119217e-18)
(1.44188974477932 0.139918065144441 -2.62967633542555e-18)
(1.5131149332411 0.103542173944906 0)
(1.58656568899913 0.0719177842753349 7.25912195401711e-18)
(1.66210085903553 0.0456851365664409 0)
(1.73945635772234 0.0254843391726927 0)
(1.81823279418764 0.0119003025991253 -2.05990544024535e-16)
(1.89789901514223 0.00537080468541494 -2.13920040289611e-16)
(1.97791587529836 0.00391096441557699 2.44681929956996e-18)
(2.05798203800929 0.00391096804371433 0)
(2.13804820069751 0.00391096804371431 9.63735266077518e-20)
(2.21811436338573 0.00391096804371425 -2.3544613998886e-16)
(2.29818052607395 0.00391096804371414 -2.40045094123067e-16)
(2.37824668876181 0.00391096804371439 0)
(2.45831285145025 0.00391096804371429 2.35044576040246e-18)
(2.5383790141389 0.00391096804371417 -2.2540722338357e-18)
(2.6184451768269 0.0039109680437143 2.44681928704645e-18)
(2.69851133951506 0.00391096804371428 0)
(2.77857750220328 0.00391096804371425 2.35542513515477e-16)
(2.8586436648915 0.00391096804371445 2.38025780857936e-16)
(2.93870982757972 0.00391096804371431 0)
(3.01877599026764 0.00391096804371444 -9.63735266077512e-20)
(3.09884215295598 0.00391096804371431 0)
(3.17890831564465 0.00391096804371439 9.63735266077525e-20)
(3.25897447833275 0.00391096804371434 0)
(3.33904064102083 0.00391096804371431 0)
(3.41910680370905 0.00391096804371425 -2.46909248211241e-16)
(3.49917296639727 0.00391096804371423 -2.4928471536947e-16)
(3.5792391290855 0.0039109680437142 -9.6373526607752e-20)
(3.65930529177372 0.00391096804371428 9.63735266077541e-20)
(3.73937145446163 0.00391096804371426 -2.25407223384456e-18)
(3.81943761714998 0.00391096804371434 4.60451799421297e-18)
(3.89950377983865 0.0039109680437142 -2.40147031509652e-16)
(3.97956994252674 0.00391096804371434 -2.2889496944059e-16)
(4.05963610521482 0.00391096804371452 2.25407223382724e-18)
(4.13970226790304 0.00391096804371437 -2.350445760435e-18)
(4.21976843059126 0.00391096804371428 -2.35044576043487e-18)
(4.29983459327949 0.00391096804371422 -4.70089152086982e-18)
(4.37990075596748 0.00391096804371428 0)
(4.4599669186557 0.00391096804371423 0)
(4.54003308134438 0.0039109680437142 0)
(4.6200992440326 0.00391096804371426 0)
(4.70016540672059 0.00391096804371422 4.60451799426207e-18)
(4.78023156940882 0.00391096804371419 0)
(4.86029773209703 0.00391096804371448 2.35044576043496e-18)
(4.94036389478526 0.00391096804371439 0)
(5.02043005747334 0.00391096804371429 0)
(5.10049622016143 0.00391096804371444 -9.63735266077524e-20)
(5.1805623828501 0.00391096804371431 -2.35044576041046e-18)
(5.26062854553845 0.00391096804371428 0)
(5.34069470822637 0.00391096804371423 2.3504457604349e-18)
(5.42076087091459 0.00391096804371427 0)
(5.50082703360281 0.00391096804371428 2.30937995521204e-16)
(5.58089319629103 0.00391096804371428 4.73048998785838e-16)
(5.66095935897925 0.00391096804371422 2.2886560055e-16)
(5.74102552166732 0.00391096804371429 0)
(5.82109168435543 0.00391096804371439 -9.63735266077535e-20)
(5.9011578470441 0.00391096804371439 4.60451799421347e-18)
(5.98122400973245 0.00391096804371436 0)
(6.06129017242036 0.00391096804371423 2.3554251351548e-16)
(6.14135633510858 0.00391096804371433 2.31555871123799e-16)
(6.22142249779681 0.00391096804371433 0)
(6.30148866048503 0.00391096804371431 0)
(6.38155482317318 0.00391096804371415 -6.95496375470828e-18)
(6.46162098586119 0.00391096804371437 0)
(6.54168714854983 0.00391096804371422 0)
(6.62175331123827 0.00391096804371432 0)
(6.70181947392613 0.00391096804371437 9.637352660775e-20)
(6.78188563661435 0.00391096804371425 9.63735266077519e-20)
(6.86195179930257 0.00391096804371434 0)
(6.9420179619908 0.00391096804371434 -2.35044576043484e-18)
(7.02208412470173 0.00391096441557697 -2.35044577252494e-18)
(7.10210098485785 0.00537080468541848 4.69527511442909e-18)
(7.18176720581245 0.0119003025991363 -2.35437371627926e-18)
(7.26054364227774 0.0254843391727106 4.67521960248136e-18)
(7.33789914096456 0.0456851365664658 2.44070306625908e-18)
(7.41343431100095 0.0719177842753651 -2.41970731800531e-18)
(7.48688506675898 0.103542173944941 5.12794400557086e-18)
(7.55811025522076 0.139918065144484 8.08358457554172e-18)
(7.62713840861312 0.180329251384894 -9.74106625826385e-20)
(7.69424841688201 0.223881072622214 -1.63911940410398e-18)
(7.75985940206521 0.269681377762051 9.7629565034187e-20)
(7.82438175836771 0.317011137287306 0)
(7.88820793652011 0.365280904553646 -8.28150653176349e-18)
(7.95168732632892 0.414010547943413 0)
(8.01497400578152 0.462987880111046 -3.52601791296696e-18)
(8.07800730735651 0.512286299216969 0)
(8.14067152458673 0.562047825533793 0)
(8.20285454426871 0.612403621690535 -9.81936354201048e-20)
(8.26444837436091 0.663469941482094 -4.16062253942938e-18)
(8.32547691846154 0.71521063689615 2.34747035474423e-18)
(8.38639694184192 0.767094346024842 4.80621282976994e-18)
(8.44802566721852 0.818142738010891 9.85510282197814e-20)
(8.5112921479904 0.867147087547328 5.04604401723605e-18)
(8.57728597392665 0.912370272401677 2.56155605857395e-18)
(8.6472593899917 0.950971083731649 -4.98292339945156e-18)
(8.72192344410904 0.979069405355034 7.00528185856035e-18)
(8.80016080830821 0.994974861299759 0)
(8.87991139326531 1.00097057324864 -4.79648491133458e-18)
(8.95996691865589 1.00195548402186 0)
(0.0400229729179017 1.0059382457151 6.71766754659348e-18)
(0.12005837306692 1.00495726528926 0)
(0.199790199693996 0.998985478915912 4.55594905112862e-18)
(0.278014927831724 0.983143496601142 2.0067910699718e-15)
(0.352680607286344 0.955157331154706 1.96875584036329e-15)
(0.422674246025574 0.916710620837534 9.69151456463535e-18)
(0.488704080392887 0.871667965849567 -1.90618613061059e-19)
(0.552017400753266 0.822859214422273 1.90530083070761e-19)
(0.613699471407099 0.772014550498602 1.66520613550813e-15)
(0.674675647527016 0.720337877117512 1.54718086950093e-15)
(0.73575989646027 0.668803628659598 2.05270583227265e-18)
(0.797407175797284 0.61794106597358 0)
(0.859641299118141 0.567786197990437 1.85271439703017e-18)
(0.922354705032145 0.518223233352906 -5.31410670946554e-18)
(0.985435727373482 0.469121531788154 -1.91181413301856e-19)
(1.04876912104443 0.420339638995634 8.3743726130079e-18)
(1.11229445785909 0.371804447501982 -6.69536005095878e-18)
(1.17616519425057 0.323727293569726 -1.91383582660462e-19)
(1.24072932458749 0.276586393037146 1.6472330792007e-18)
(1.30637773276896 0.230968841636362 0)
(1.37351917389235 0.187590800969115 5.51045254635785e-18)
(1.44257109573547 0.147340863599796 2.72840089907974e-18)
(1.51381127852353 0.111110121917125 2.42657873192029e-18)
(1.58726814309003 0.079611924704399 5.05318053338022e-18)
(1.66280109912795 0.0534839566555883 2.26143196461024e-18)
(1.74014711469845 0.0333637707800595 0)
(1.8189083931618 0.0198339425305134 2.06640516110799e-16)
(1.89855590257907 0.0133305020333802 2.03927871332794e-16)
(1.97855270614953 0.011876487816536 4.34993233598991e-18)
(2.05859865200804 0.0118764914301937 -2.17496615624774e-18)
(2.13864459784384 0.0118764914301937 2.36772422179625e-18)
(2.21869054367965 0.0118764914301936 2.32750254478405e-16)
(2.29873648951545 0.0118764914301937 2.28148776799526e-16)
(2.3787824353509 0.0118764914301937 -1.92758065548804e-19)
(2.45882838118692 0.0118764914301936 -4.54269037798147e-18)
(2.53887432702314 0.0118764914301937 0)
(2.61892027285873 0.0118764914301936 -2.36772422179984e-18)
(2.69896621869447 0.0118764914301938 -2.36772422179615e-18)
(2.77901216453027 0.0118764914301939 -2.23472115656779e-16)
(2.85905811036608 0.0118764914301938 -2.23340441130356e-16)
(2.93910405620188 0.0118764914301937 0)
(3.01915000203738 0.0118764914301938 1.92758065548802e-19)
(3.0991959478733 0.0118764914301938 -4.73544844354641e-18)
(3.17924189370956 0.0118764914301937 0)
(3.25928783954524 0.0118764914301937 -1.92758065548801e-19)
(3.3393337853809 0.0118764914301937 0)
(3.4193797312167 0.0118764914301938 2.28207564100356e-16)
(3.4994256770525 0.0118764914301935 2.32240953514855e-16)
(3.57947162288831 0.0118764914301938 0)
(3.65951756872411 0.0118764914301935 -2.36772422179635e-18)
(3.7395635145596 0.0118764914301937 0)
(3.81960946039554 0.0118764914301937 -6.91041459976937e-18)
(3.89965540623178 0.0118764914301938 2.23857631787791e-16)
(3.97970135206746 0.0118764914301938 2.25595172696242e-16)
(4.05974729790312 0.0118764914301938 0)
(4.13979324373892 0.0118764914301938 0)
(4.21983918957473 0.0118764914301937 -4.73544844359248e-18)
(4.29988513541053 0.0118764914301935 0)
(4.3799310812461 0.0118764914301938 4.73544844361772e-18)
(4.45997702708191 0.0118764914301935 0)
(4.54002297291817 0.0118764914301935 1.92758065548805e-19)
(4.62006891875397 0.0118764914301937 0)
(4.70011486458955 0.0118764914301935 0)
(4.78016081042535 0.0118764914301938 0)
(4.86020675626115 0.0118764914301937 0)
(4.94025270209696 0.0118764914301938 1.927580655488e-19)
(5.02029864793262 0.0118764914301938 0)
(5.1003445937683 0.0118764914301938 -4.73544844359106e-18)
(5.18039053960455 0.0118764914301939 0)
(5.26043648544048 0.0118764914301938 -2.36772422181295e-18)
(5.34048243127598 0.0118764914301935 0)
(5.42052837711178 0.0118764914301937 4.73544844359304e-18)
(5.50057432294758 0.0118764914301937 -2.25839839878552e-16)
(5.58062026878339 0.0118764914301936 -4.55953504403639e-16)
(5.66066621461919 0.0118764914301936 -2.25372775270305e-16)
(5.74071216045485 0.0118764914301937 0)
(5.82075810629053 0.0118764914301938 0)
(5.90080405212678 0.0118764914301937 6.91041459977039e-18)
(5.98084999796271 0.0118764914301938 -4.92820650917505e-18)
(6.0608959437982 0.0118764914301938 -2.23664873722322e-16)
(6.14094188963401 0.0118764914301937 -2.28085824362655e-16)
(6.22098783546981 0.0118764914301939 0)
(6.30103378130562 0.0118764914301937 -2.17496615624745e-18)
(6.38107972714135 0.0118764914301938 0)
(6.46112567297694 0.0118764914301936 -6.91041459986479e-18)
(6.54117161881317 0.0118764914301937 0)
(6.62121756464919 0.0118764914301937 0)
(6.70126351048463 0.0118764914301936 0)
(6.78130945632044 0.0118764914301938 0)
(6.86135540215624 0.0118764914301937 -4.7354484435928e-18)
(6.94140134799204 0.0118764914301937 -4.73544844359252e-18)
(7.02144729385055 0.0118764878165361 0)
(7.10144409742102 0.0133305020333837 0)
(7.18109160683828 0.0198339425305242 0)
(7.25985288530164 0.0333637707800777 -2.40197562659996e-18)
(7.33719890087213 0.053483956655613 -4.90935193555065e-18)
(7.41273185691005 0.079611924704431 -1.93380157321474e-19)
(7.48618872147654 0.111110121917161 -2.62009354723826e-18)
(7.5574289042646 0.147340863599835 2.5365624214535e-18)
(7.62648082610772 0.187590800969159 0)
(7.69362226723111 0.23096884163641 2.78531158179397e-18)
(7.75927067541258 0.276586393037195 5.62904694200327e-18)
(7.8238348057495 0.323727293569776 -1.94074661528525e-19)
(7.88770554214098 0.371804447502033 -1.94145633904513e-19)
(7.95123087895563 0.420339638995685 -3.27324999185402e-18)
(8.01456427262742 0.469121531787473 0)
(8.07764529496917 0.518223233351675 0)
(8.14035870088217 0.567786197990161 -5.55814319118253e-18)
(8.20259282420178 0.617941065974784 -1.94571081174803e-18)
(8.26424010353958 0.668803628659956 4.10541166437478e-18)
(8.32532435247351 0.720337877116969 -2.36258104052043e-18)
(8.38630052859173 0.772014550499646 1.94880901377082e-19)
(8.4479825992463 0.822859214422494 -7.22894217407666e-18)
(8.51129591960765 0.871667965848957 -4.76956406784231e-18)
(8.57732575397399 0.916710620838376 1.00844780376897e-17)
(8.64731939271289 0.955157331156036 -1.94204538193294e-19)
(8.7219850721682 0.983143496601481 -4.83026188399201e-18)
(8.80020980030632 0.998985478915518 2.37495822153811e-18)
(8.87994162693308 1.00495726528918 0)
(8.9599770270821 1.0059382457151 -4.73544844358845e-18)
(0.0400124941910283 1.01006690740011 4.48646651973257e-18)
(0.120027031853148 1.00909000130473 -4.38901913875419e-18)
(0.19973941297775 1.003143017015 4.40268292580091e-18)
(0.277951042157076 0.987366833688252 -1.95158316681315e-15)
(0.352618406489559 0.959496933096162 -1.88063442223287e-15)
(0.422633008720746 0.921209968715784 9.35140539741856e-18)
(0.488700170610751 0.876354456551106 4.78846602308584e-18)
(0.552062046423349 0.827748468291497 -4.51997248470251e-18)
(0.613799416538227 0.777114995514571 1.9961742383216e-18)
(0.674833802429287 0.725652942333213 -6.64952633373616e-18)
(0.735975796829044 0.674332703838021 -3.95730840106207e-18)
(0.79767848341942 0.623681362692554 -6.00878579900386e-18)
(0.859965582459506 0.573734783621833 1.9100699570561e-19)
(0.922729978987111 0.524377654668254 1.51669536764895e-18)
(0.98586047025138 0.475479877064683 1.83008070836341e-18)
(1.0492422894243 0.426900583223852 4.73400282480648e-18)
(1.11281525642219 0.378566967018145 -1.3303890573984e-18)
(1.17673218335585 0.330689482459439 0)
(1.24133961803616 0.283744359415099 3.19056087439586e-18)
(1.30702682013153 0.23831625657011 -3.06928759828494e-18)
(1.37420084558486 0.19511836253699 -5.12985099596599e-18)
(1.44327740657983 0.155035580980132 5.08531648964727e-18)
(1.51453313296958 0.118955305950182 -2.14891225077189e-18)
(1.58799633011596 0.0875879238604619 9.20107472803349e-18)
(1.66352699103873 0.061568470063988 1.92266444055788e-19)
(1.74086317608981 0.0415318486354153 -2.32374207609673e-18)
(1.81960874126475 0.0280582144548807 -2.29471509164051e-18)
(1.89923685368695 0.0215817859270958 4.57743761096921e-18)
(1.97921286594256 0.0201338112015743 -2.09865585314643e-18)
(2.05923785434732 0.0201338148002217 4.39007015570526e-18)
(2.13926284272938 0.0201338148002218 0)
(2.21928783111143 0.0201338148002219 4.3900701557049e-18)
(2.29931281949349 0.0201338148002217 6.68148446953934e-18)
(2.37933780787519 0.0201338148002217 -2.29141431385356e-18)
(2.45936279625746 0.0201338148002217 2.29141431380478e-18)
(2.53938778463994 0.0201338148002218 -4.19731168375611e-18)
(2.61941277302178 0.0201338148002218 -2.2914143138384e-18)
(2.69943776140377 0.0201338148002218 0)
(2.77946274978583 0.0201338148002219 0)
(2.85948773816789 0.0201338148002218 2.29141431383471e-18)
(2.93951272654994 0.0201338148002216 -2.29141431383495e-18)
(3.01953771493169 0.0201338148002216 2.0986558418861e-18)
(3.09956270331387 0.0201338148002217 1.92758471964603e-19)
(3.17958769169638 0.0201338148002217 0)
(3.25961268007831 0.0201338148002216 0)
(3.33963766846022 0.0201338148002218 1.92758471964599e-19)
(3.41966265684228 0.0201338148002218 2.29141431383471e-18)
(3.49968764522434 0.0201338148002218 -4.390070155705e-18)
(3.5797126336064 0.0201338148002216 0)
(3.65973762198845 0.0201338148002218 -2.09865584187021e-18)
(3.7397626103702 0.0201338148002217 0)
(3.81978759875238 0.0201338148002219 -1.92758471964601e-19)
(3.89981258713489 0.0201338148002219 0)
(3.97983757551681 0.0201338148002219 2.29141431384218e-18)
(4.05986256389873 0.0201338148002216 0)
(4.13988755228078 0.0201338148002218 0)
(4.21991254066284 0.0201338148002217 -1.92758471964603e-19)
(4.2999375290449 0.0201338148002218 0)
(4.37996251742673 0.0201338148002217 4.19731168376427e-18)
(4.45998750580878 0.0201338148002217 -6.48872599753938e-18)
(4.5400124941913 0.0201338148002217 -6.48872599753941e-18)
(4.62003748257335 0.0201338148002217 0)
(4.70006247095518 0.0201338148002218 0)
(4.78008745933724 0.0201338148002217 1.92758471964607e-19)
(4.86011244771929 0.0201338148002217 -1.92758471964604e-19)
(4.94013743610135 0.0201338148002218 0)
(5.02016242448327 0.0201338148002218 0)
(5.1001874128652 0.0201338148002218 -2.09865584186962e-18)
(5.1802124012477 0.0201338148002219 1.92758471964598e-19)
(5.26023738962989 0.0201338148002217 0)
(5.34026237801164 0.0201338148002217 -4.39007015570526e-18)
(5.42028736639369 0.0201338148002218 2.29141431383478e-18)
(5.50031235477575 0.0201338148002217 1.92758471964602e-19)
(5.5803373431578 0.0201338148002217 0)
(5.66036233153986 0.0201338148002217 0)
(5.74038731992177 0.0201338148002216 -2.29141431384231e-18)
(5.82041230830371 0.0201338148002217 0)
(5.90043729668621 0.0201338148002217 1.92758471964605e-19)
(5.98046228506839 0.0201338148002218 0)
(6.06048727345014 0.0201338148002217 1.92758471964604e-19)
(6.1405122618322 0.0201338148002218 -2.29141431383497e-18)
(6.22053725021425 0.0201338148002219 0)
(6.30056223859631 0.0201338148002219 1.92758471964598e-19)
(6.38058722697831 0.0201338148002218 -2.09865584187352e-18)
(6.46061221536014 0.0201338148002217 0)
(6.54063720374262 0.0201338148002217 -6.87424294141433e-18)
(6.62066219212489 0.0201338148002218 0)
(6.70068718050659 0.0201338148002217 0)
(6.78071216888865 0.0201338148002217 1.92758471964603e-19)
(6.86073715727071 0.0201338148002218 0)
(6.94076214565276 0.0201338148002217 1.92758471964605e-19)
(7.02078713405753 0.0201338112015742 -2.29141432496401e-18)
(7.10076314631314 0.0215817859270995 0)
(7.18039125873534 0.0280582144548916 -1.92963257335352e-19)
(7.25913682391027 0.0415318486354328 -1.93105653738916e-19)
(7.33647300896135 0.0615684700640126 -2.37517958882522e-18)
(7.41200366988411 0.0875879238604914 4.69785575320936e-18)
(7.48546686703049 0.118955305950218 0)
(7.55672259342025 0.155035580980174 -2.83403716818398e-18)
(7.62579915441521 0.195118362537034 0)
(7.69297317986854 0.238316256570161 0)
(7.7586603819639 0.283744359415145 0)
(7.82326781664422 0.330689482459489 -2.92741716318606e-18)
(7.88718474357788 0.378566967018196 -4.37094923762205e-18)
(7.95075771057577 0.426900583223904 1.38379799547078e-18)
(8.01413952974952 0.475479877064006 1.94266480471261e-19)
(8.07727002101419 0.524377654667024 0)
(8.14003441754081 0.573734783621563 5.55282648544537e-18)
(8.20232151657965 0.623681362693754 -5.82153617233158e-18)
(8.26402420317079 0.674332703838367 2.17331962236362e-18)
(8.32516619757124 0.725652942332674 6.26827376090537e-18)
(8.38620058346061 0.77711499551561 -1.99183789276395e-18)
(8.44793795357623 0.827748468291719 0)
(8.5112998293898 0.876354456550511 -7.0915855435701e-18)
(8.57736699127881 0.921209968716617 2.67934438240175e-18)
(8.64738159350967 0.959496933097487 1.94203974830283e-19)
(8.72204895784284 0.987366833688586 -1.9364400658272e-19)
(8.80026058702259 1.00314301701461 6.50865539511319e-18)
(8.87997296814684 1.00909000130466 -6.68018503433506e-18)
(8.95998750580897 1.01006690740011 0)
(0.0400016315983373 1.01434681380333 0)
(0.119994542520805 1.01337413129633 -1.92679551788365e-19)
(0.199686765797771 1.00745285771105 0)
(0.277884816163949 0.991744883924289 0)
(0.352553927095211 0.96399550738082 8.972609389359e-18)
(0.422590260774962 0.925874140633791 2.20811736071349e-18)
(0.488696117602393 0.881212626475487 2.40672072971117e-18)
(0.552108327586404 0.832816828898856 1.98775514468565e-18)
(0.613903022932085 0.782402283741777 -1.90541988683372e-19)
(0.674997750982329 0.731162713063769 -2.01383792875389e-18)
(0.736199606236291 0.680064324609788 -1.71645935171664e-18)
(0.797959729815735 0.629631942898508 -1.90894866162634e-19)
(0.860301745236885 0.579901283137027 9.182533124949e-18)
(0.923119000319295 0.530757530349103 3.48404825044678e-18)
(0.986300772703092 0.482071147124235 -1.91181440019315e-19)
(1.04973279135038 0.433701874091458 3.04289873552327e-18)
(1.11335513336886 0.385577217519885 1.4672069292679e-18)
(1.17731994294424 0.337906716861133 -1.79412692322035e-18)
(1.24197226833683 0.291164543248165 0)
(1.30769968548249 0.24593282902741 0)
(1.37490748892301 0.202921680898069 2.66551360950429e-18)
(1.44400959166673 0.163012178477957 0)
(1.51528143105438 0.127087882010186 0)
(1.58875119274855 0.0958561070414437 0)
(1.66427947446707 0.0699491425520708 -4.40276240575007e-18)
(1.74160546886859 0.0499991466654775 1.92410030637751e-19)
(1.82033474512649 0.0365837650376853 0)
(1.89994274998564 0.0301353379995792 4.23772878473318e-18)
(1.97989720928209 0.0286936240235683 2.21780140799363e-18)
(2.05990047250147 0.0286936276066558 0)
(2.13990373569815 0.0286936276066557 8.67844669461579e-18)
(2.21990699889482 0.0286936276066557 0)
(2.29991026209149 0.0286936276066557 -1.92758893493375e-19)
(2.37991352528781 0.0286936276066558 -2.21780139704536e-18)
(2.4599167884847 0.0286936276066557 -2.21780139699842e-18)
(2.5399200516818 0.0286936276066557 -1.92758893493375e-19)
(2.61992331487826 0.0286936276066558 0)
(2.69992657807486 0.0286936276066557 0)
(2.77992984127154 0.0286936276066556 0)
(2.85993310446822 0.0286936276066556 -1.92758893493376e-19)
(2.93993636766489 0.0286936276066557 1.9275889349337e-19)
(3.01993963086126 0.0286936276066556 -2.21780139704268e-18)
(3.09994289405806 0.0286936276066557 0)
(3.17994615725518 0.0286936276066557 -1.92758893493375e-19)
(3.25994942045173 0.0286936276066556 -2.21780139703459e-18)
(3.33995268364826 0.0286936276066556 -1.92758893493377e-19)
(3.41995594684494 0.0286936276066556 0)
(3.49995921004161 0.0286936276066557 0)
(3.57996247323829 0.0286936276066558 0)
(3.65996573643496 0.0286936276066557 2.21780139702728e-18)
(3.73996899963133 0.0286936276066558 0)
(3.81997226282813 0.0286936276066556 -2.89384022621394e-16)
(3.89997552602525 0.0286936276066557 -2.88321144390344e-16)
(3.97997878922179 0.0286936276066557 0)
(4.05998205241833 0.0286936276066557 6.65340419108221e-18)
(4.139985315615 0.0286936276066556 0)
(4.21998857881168 0.0286936276066557 0)
(4.29999184200835 0.0286936276066557 2.0250425035339e-18)
(4.3799951052048 0.0286936276066558 6.65340419111635e-18)
(4.45999836840148 0.0286936276066556 1.92758893493374e-19)
(4.5400016315986 0.0286936276066556 -1.92758893493374e-19)
(4.62000489479528 0.0286936276066558 4.43560279407758e-18)
(4.70000815799172 0.0286936276066557 0)
(4.7800114211884 0.0286936276066557 4.43560279405456e-18)
(4.86001468438507 0.0286936276066557 0)
(4.94001794758175 0.0286936276066557 -2.41056029052038e-18)
(5.02002121077829 0.0286936276066558 4.2428439005756e-18)
(5.10002447397483 0.0286936276066557 2.86973462333847e-16)
(5.18002773717195 0.0286936276066556 2.86103342991136e-16)
(5.26003100036876 0.0286936276066557 2.21780139704271e-18)
(5.34003426356512 0.0286936276066557 1.9275889349337e-19)
(5.4200375267618 0.0286936276066556 2.21780139702729e-18)
(5.50004078995847 0.0286936276066557 2.0250425035339e-18)
(5.58004405315515 0.0286936276066558 1.9275889349337e-19)
(5.66004731635182 0.0286936276066556 1.92758893493374e-19)
(5.74005057954835 0.0286936276066556 -4.43560279406919e-18)
(5.8200538427449 0.0286936276066557 -1.92758893493373e-19)
(5.90005710594202 0.0286936276066556 4.4356027940116e-18)
(5.98006036913882 0.0286936276066557 6.26788640414103e-18)
(6.06006363233519 0.0286936276066556 -1.92758893493379e-19)
(6.14006689553187 0.0286936276066558 2.21780139702726e-18)
(6.22007015872854 0.0286936276066556 0)
(6.30007342192522 0.0286936276066557 2.21780139702727e-18)
(6.38007668512183 0.0286936276066557 0)
(6.46007994831828 0.0286936276066558 0)
(6.54008321151538 0.0286936276066557 0)
(6.62008647471227 0.0286936276066557 0)
(6.70008973790859 0.0286936276066558 2.21780139702739e-18)
(6.78009300110526 0.0286936276066557 0)
(6.86009626430194 0.0286936276066557 -8.48568780112231e-18)
(6.94009952749862 0.0286936276066557 2.21780139702727e-18)
(7.02010279071799 0.0286936240235683 0)
(7.10005725001444 0.0301353379995826 -1.92817918449024e-19)
(7.17966525487359 0.0365837650376959 -1.92963751151983e-19)
(7.25839453113149 0.0499991466654955 -4.30617531893989e-18)
(7.33572052553302 0.0699491425520953 -2.1052478753834e-18)
(7.41124880725153 0.095856107041474 4.34582981387703e-18)
(7.4847185689457 0.127087882010221 -2.45175209452533e-18)
(7.55599040833335 0.163012178477997 0)
(7.62509251107706 0.202921680898113 -2.66758988248608e-18)
(7.69230031451758 0.245932829027457 -5.37479293398332e-18)
(7.75802773166324 0.291164543248214 2.70738074240186e-18)
(7.82268005705583 0.337906716861183 0)
(7.88664486663121 0.385577217519937 -1.46720692926792e-18)
(7.95026720864969 0.43370187409151 -1.52144936776149e-18)
(8.01369922729779 0.482071147123555 1.77438028065658e-18)
(8.076880999682 0.530757530347883 3.68162770753291e-18)
(8.13969825476342 0.579901283136756 8.99837337007154e-18)
(8.20204027018334 0.629631942899707 0)
(8.26380039376355 0.680064324610139 -7.62888713571329e-18)
(8.3250022490182 0.731162713063234 1.81904631865208e-18)
(8.38609697706676 0.78240228374281 0)
(8.44789167241317 0.832816828899075 -2.1782863460738e-18)
(8.51130388239814 0.881212626474886 -2.2161012932181e-18)
(8.5774097392246 0.925874140634622 -4.41623472147107e-18)
(8.64744607290402 0.96399550738214 -4.48923435323363e-18)
(8.72211518383598 0.991744883924628 -2.26126688598356e-18)
(8.80031323420252 1.00745285771065 0)
(8.88000545747921 1.01337413129625 0)
(8.95999836840166 1.01434681380333 1.92758893493373e-19)
(0.0399903710777476 1.01878350544283 4.00444749496939e-18)
(0.119960863011065 1.01781520125011 0)
(0.199632190000076 1.01192058027921 0)
(0.277816164119649 0.996283314900759 1.99474400488073e-18)
(0.352487085631581 0.968658877632325 1.87993392934749e-18)
(0.422545946849189 0.930709174560621 6.57783640011766e-18)
(0.488691916121056 0.886248764687984 -1.08716607851022e-17)
(0.552156304154705 0.838070857380447 2.48054031736861e-18)
(0.61401042471001 0.787883259720597 0)
(0.675167705422629 0.73687432187855 -5.82277641464785e-18)
(0.736431614411501 0.686005910768309 2.02907890011123e-18)
(0.798251279071297 0.635800509863026 -1.90895095234874e-19)
(0.860650222627903 0.586293679343199 -3.82014513700336e-19)
(0.923522272634898 0.537371119441082 0)
(0.986757204721257 0.48890387468193 -1.33222851763411e-18)
(1.05024126180143 0.440752316202541 -4.78318633121237e-18)
(1.1139147875967 0.392844274125383 -5.65856944718412e-18)
(1.17792923390021 0.345388339849401 -5.82621478266363e-18)
(1.24262809448763 0.298856550343189 2.41921745938277e-18)
(1.30839719988049 0.253828419051145 0)
(1.37564001869242 0.211010857843737 0)
(1.44476859884603 0.171280982193853 0)
(1.51605714148557 0.135518378105834 4.35700259307034e-18)
(1.58953370819213 0.104427177790214 -1.9212428326338e-19)
(1.66505952353595 0.0786368232700178 4.06254146287214e-18)
(1.74237495396443 0.058776626148547 0)
(1.82108734458937 0.0454216309602187 0)
(1.90067450528734 0.0390022311806073 0)
(1.98060662207924 0.0375670073186963 -1.92759330850406e-19)
(2.06058736425744 0.0375670108856537 2.14679017616656e-18)
(2.14056810641294 0.0375670108856536 8.39440137396062e-18)
(2.22054884856843 0.0375670108856537 1.92759330705712e-19)
(2.30052959072392 0.0375670108856534 0)
(2.38051033287907 0.0375670108856536 -2.33954950688955e-18)
(2.46049107503478 0.0375670108856535 0)
(2.54047181719069 0.0375670108856536 0)
(2.62045255934597 0.0375670108856536 0)
(2.7004333015014 0.0375670108856535 -6.05485186708837e-18)
(2.7804140436569 0.0375670108856535 0)
(2.86039478581239 0.0375670108856534 6.24761119779447e-18)
(2.94037552796789 0.0375670108856536 1.92759330705717e-19)
(3.02035627012308 0.0375670108856537 1.9275933070571e-19)
(3.1003370122787 0.0375670108856535 2.14679017614594e-18)
(3.18031775443464 0.0375670108856536 -4.29358035233121e-18)
(3.26029849659001 0.0375670108856536 0)
(3.34027923874536 0.0375670108856535 -1.92759330705714e-19)
(3.42025998090086 0.0375670108856534 4.10082102162774e-18)
(3.50024072305635 0.0375670108856535 6.05485186708838e-18)
(3.58022146521185 0.0375670108856535 -2.14679017616661e-18)
(3.66020220736734 0.0375670108856536 1.92759330705715e-19)
(3.74018294952253 0.0375670108856536 -1.92759330705716e-19)
(3.82016369167816 0.0375670108856536 2.77366629898933e-16)
(3.90014443383409 0.0375670108856536 2.77655838784994e-16)
(3.98012517598946 0.0375670108856535 -6.24761119781466e-18)
(4.06010591814482 0.0375670108856535 0)
(4.14008666030031 0.0375670108856534 0)
(4.2200674024558 0.0375670108856535 0)
(4.3000481446113 0.0375670108856535 -6.05485186708838e-18)
(4.38002888676657 0.0375670108856536 0)
(4.46000962892207 0.0375670108856535 1.92759330705716e-19)
(4.53999037107801 0.0375670108856535 1.95403084544989e-18)
(4.61997111323351 0.0375670108856536 -2.14679017617761e-18)
(4.69995185538878 0.0375670108856535 2.14679017616673e-18)
(4.77993259754427 0.0375670108856535 0)
(4.85991333969977 0.0375670108856536 0)
(4.93989408185526 0.0375670108856535 0)
(5.01987482401062 0.0375670108856535 2.14679017617347e-18)
(5.09985556616599 0.0375670108856536 -2.83807000430248e-16)
(5.17983630832193 0.0375670108856535 -2.77848598113596e-16)