/*--------------------------------*- C++ -*----------------------------------*\
| =========                 |                                                 |
| \\      /  F ield         | OpenFOAM: The Open Source CFD Toolbox           |
|  \\    /   O peration     | Version:  3.0.0                                 |
|   \\  /    A nd           | Web:      www.OpenFOAM.org                      |
|    \\/     M anipulation  |                                                 |
\*---------------------------------------------------------------------------*/
FoamFile
{
    version     2.0;
    format      ascii;
    class       volScalarField;
    location    "0";
    object      firstCellSizeAtPatch;
}
// * * * * * * * * * * * * * * * * * * * * * * * * * * * * * * * * * * * * * //

dimensions      [0 3 0 0 0 0 0];

internalField   nonuniform List<scalar> 
150
(
0.00563283716441676
0.005633621245593
0.00563017378592256
0.00559966944965292
0.00550047031866581
0.0053253598377771
0.005183549125403
0.00512522659924271
0.00514569102821068
0.00523102901552873
0.00537079927232998
0.00556016733042133
0.00579680799120002
0.00606174899469246
0.00632243200188156
0.00657536965434936
0.00682036178713647
0.00705726711651816
0.00728601826103891
0.0075066300927758
0.00772714330496053
0.00796792427740985
0.0082322141398257
0.00852019473402951
0.00883187264598442
0.00916660462882908
0.00952192919429482
0.00988176341597758
0.0102226470156067
0.0105346290164775
0.0108074534575364
0.0110296814693944
0.0111895191204604
0.011276143587079
0.0112818946190836
0.0112656742468565
0.0112656743288356
0.011265674328835
0.0112656743288356
0.0112656743288354
0.0112656743288355
0.0112656743288356
0.0112656743288354
0.0112656743288354
0.0112656743288354
0.0112656743288353
0.0112656743288354
0.0112656743288356
0.0112656743288357
0.0112656743288356
0.0112656743288352
0.011265674328835
0.0112656743288357
0.0112656743288355
0.0112656743288355
0.0112656743288353
0.0112656743288355
0.0112656743288353
0.011265674328835
0.0112656743288356
0.0112656743288355
0.0112656743288355
0.0112656743288354
0.0112656743288353
0.0112656743288353
0.0112656743288354
0.0112656743288358
0.0112656743288355
0.0112656743288353
0.0112656743288358
0.0112656743288351
0.0112656743288356
0.0112656743288354
0.0112656743288353
0.0112656743288358
0.0112656743288355
0.0112656743288354
0.0112656743288354
0.0112656743288354
0.0112656743288355
0.0112656743288358
0.0112656743288352
0.0112656743288358
0.0112656743288354
0.0112656743288354
0.0112656743288353
0.0112656743288354
0.0112656743288355
0.0112656743288354
0.0112656743288357
0.0112656743288353
0.0112656743288353
0.0112656743288353
0.011265674328835
0.0112656743288357
0.0112656743288354
0.0112656743288354
0.0112656743288353
0.0112656743288354
0.0112656743288354
0.0112656743288353
0.0112656743288355
0.0112656743288355
0.0112656743288358
0.0112656743288354
0.0112656743288351
0.0112656743288358
0.0112656743288354
0.0112656743288355
0.0112656743288358
0.0112656743288355
0.0112656743288351
0.0112656743288356
0.0112656743288349
0.0112656742468571
0.0112818946190831
0.011276143587079
0.0111895191204599
0.0110296814693934
0.0108074534575381
0.0105346290164799
0.0102226470156066
0.00988176341597794
0.00952192919429816
0.00916660462882799
0.00883187264598318
0.00852019473402975
0.00823221413982607
0.00796792427741076
0.00772714330496171
0.00750663009277364
0.00728601826115861
0.00705726711631465
0.00682036178740354
0.00657536965415281
0.00632243200217711
0.00606174899445977
0.00579680799122295
0.00556016733043709
0.00537079927209342
0.00523102901578569
0.00514569102800828
0.00512522659943438
0.0051835491253092
0.00532535983774302
0.00550047031871313
0.00559966944964881
0.00563017378592449
0.00563362124559157
0.00563283716441632
)
;

boundaryField
{
    bottomWall
    {
        type            calculated;
        value           uniform 0;
    }
    topWall
    {
        type            calculated;
        value           uniform 0;
    }
    inlet_half0
    {
        type            cyclic;
    }
    inlet_half1
    {
        type            cyclic;
    }
    outlet_half0
    {
        type            cyclic;
    }
    outlet_half1
    {
        type            cyclic;
    }
    sideRight_half0
    {
        type            cyclic;
    }
    sideRight_half1
    {
        type            cyclic;
    }
    sideLeft_half0
    {
        type            cyclic;
    }
    sideLeft_half1
    {
        type            cyclic;
    }
}


// ************************************************************************* //
