/*--------------------------------*- C++ -*----------------------------------*\
| =========                 |                                                 |
| \\      /  F ield         | OpenFOAM: The Open Source CFD Toolbox           |
|  \\    /   O peration     | Version:  3.0.1                                 |
|   \\  /    A nd           | Web:      www.OpenFOAM.org                      |
|    \\/     M anipulation  |                                                 |
\*---------------------------------------------------------------------------*/
FoamFile
{
    version     2.0;
    format      ascii;
    class       volScalarField;
    location    "10000";
    object      kd;
}
// * * * * * * * * * * * * * * * * * * * * * * * * * * * * * * * * * * * * * //

dimensions      [0 2 -2 0 0 0 0];

internalField   nonuniform List<scalar> 
15600
(
0.00365386186206 
0.00378382367653 
0.0012134831361 
0.000435141261223 
0.000653092594261 
0.00105571162971 
0.000982363477517 
0.000608485130161 
0.000596287152933 
0.000572826672907 
0.000369582284989 
0.000314512909779 
0.000427021279281 
0.000431011827109 
0.000381298541858 
0.000312651078285 
0.000351973928937 
0.000683859383638 
0.0007688689124 
0.00123329977471 
0.00142174880766 
0.00180790127547 
0.00206912401753 
0.00238485939064 
0.0024839211624 
0.00278341136403 
0.00276532656071 
0.00291226373301 
0.00301100664581 
0.0035040979724 
0.00370835470736 
0.00401174446014 
0.00432697464381 
0.00480192122142 
0.00511116997742 
0.00525134987207 
0.00527164083527 
0.00541610574959 
0.0055765694491 
0.0057918835027 
0.00571068212757 
0.00603930439514 
0.0057859089656 
0.00591639778798 
0.00584979452015 
0.00587960012764 
0.00612865770112 
0.00651329336976 
0.00585993870842 
0.00576991862887 
0.00595350598376 
0.00616366145257 
0.00547050721705 
0.0053861478852 
0.00538545934762 
0.00552322898088 
0.00576444330636 
0.00532529946166 
0.00555685433758 
0.00547347949586 
0.00538854304765 
0.00570670205266 
0.00529500257401 
0.00465781976104 
0.00508255015545 
0.00564290359754 
0.00560613130247 
0.00565667661389 
0.00408577675253 
0.00455172242323 
0.00522736599754 
0.00513990171496 
0.00368995080726 
0.0044272512007 
0.00495110082393 
0.00346644952395 
0.00441256001017 
0.00447809451787 
0.00392286251948 
0.00441631120698 
0.00402523583217 
0.00304843005071 
0.00417105877661 
0.00397864542362 
0.00343615654407 
0.00321971450044 
0.00329673554632 
0.00371585624448 
0.00288828887024 
0.00333921967792 
0.00274803112848 
0.00277517879653 
0.00354962218119 
0.00409759003779 
0.00455700758655 
0.00479024453282 
0.0048757178179 
0.00483165996772 
0.00464396231775 
0.00405258754081 
0.00391903284276 
0.00351886343838 
0.00251553133124 
0.00161325772796 
0.00131222376975 
0.00159512395539 
0.00178103928513 
0.00169197029619 
0.00116909667435 
0.00129757757019 
0.00191911813034 
0.00191703567493 
0.00180909097361 
0.00258218763506 
0.00269487585143 
0.00152484169157 
0.000839965444854 
0.00105849966249 
0.00161572077038 
0.00231092790741 
0.0172096282044 
0.0193316658177 
0.0123874010322 
0.0073111552506 
0.00669082414568 
0.00670830071026 
0.00678267435667 
0.0059492722138 
0.00535840309786 
0.00491019063325 
0.00428751130153 
0.00396419490599 
0.0038159675448 
0.00372212787463 
0.00376668341832 
0.00387232425225 
0.00403574338402 
0.00452881731436 
0.00496973786652 
0.00549110492929 
0.00609248898499 
0.00680992682782 
0.00746112877544 
0.008157735739 
0.00883761803915 
0.00951057428262 
0.00998320794865 
0.0105257189069 
0.0116012119561 
0.0130954783358 
0.0143198274759 
0.0155754950529 
0.0164657478054 
0.0173756454633 
0.0181925564575 
0.0188823473569 
0.0196082833012 
0.020342943101 
0.0209131153192 
0.0211241567608 
0.0216134517333 
0.0216265429827 
0.0219582789011 
0.0219697045868 
0.0223466811833 
0.0225524052115 
0.0227457380181 
0.0230288503567 
0.0228503499978 
0.0226065047309 
0.0222555191523 
0.0222380766356 
0.0220319824416 
0.0217619313147 
0.0215699333706 
0.0213295513851 
0.0211724399414 
0.0208389259507 
0.0205028236038 
0.0203031840552 
0.0201022186403 
0.0197790064429 
0.0193907657457 
0.018961447356 
0.0187424688857 
0.0184662032755 
0.018247537229 
0.0179634851684 
0.0175116120418 
0.0169911014774 
0.0165929272846 
0.0163637450666 
0.0160977005965 
0.0157295958102 
0.0155705116246 
0.0153120488103 
0.0148786834513 
0.0147338965474 
0.0143926905882 
0.0142081608285 
0.0139457280265 
0.0138575043191 
0.0135256367019 
0.0130855482876 
0.0127136751019 
0.0124122818785 
0.0120695103149 
0.0117929651125 
0.0115947598829 
0.0112491931453 
0.0109732972045 
0.0108333269355 
0.0116165203515 
0.0131379674193 
0.0147300667271 
0.015556772627 
0.0162462154125 
0.0166223099455 
0.0168024909461 
0.0167967604267 
0.0167876521132 
0.0163923098218 
0.0162884795822 
0.015541340443 
0.0154201041842 
0.0151926214986 
0.015180550665 
0.0150794994993 
0.0152135562609 
0.015635724776 
0.01721444707 
0.0179439273214 
0.0187120606206 
0.0196529405265 
0.0192111012423 
0.0181294795655 
0.0161876744942 
0.014967717283 
0.0113916245714 
0.0123118622473 
0.0329302327721 
0.0365389435077 
0.0274683103511 
0.0162759003874 
0.0131614984373 
0.0123680559824 
0.0110508686259 
0.0101014414313 
0.00929056301171 
0.00872401619587 
0.00820733581185 
0.00800096760175 
0.0079376030927 
0.00794759078761 
0.00809704808354 
0.00841470856319 
0.00860447977574 
0.00924562582948 
0.0096121715612 
0.0101774267282 
0.0107637931335 
0.0114325594484 
0.0120964437818 
0.0128007396118 
0.0135235833874 
0.014132338735 
0.0147334572105 
0.0156993538081 
0.0174426212801 
0.0192796407314 
0.0208684049083 
0.0222417080097 
0.0234879369694 
0.0247472876759 
0.0257745218985 
0.0267445008114 
0.0276720132306 
0.0284667790809 
0.0292875721297 
0.0298793494338 
0.0302194741938 
0.030587904477 
0.0308349583689 
0.0312317584429 
0.0315342255036 
0.0320109484072 
0.0325014389728 
0.0327523926459 
0.0325982030828 
0.0325677551706 
0.0320699492002 
0.0318786678878 
0.0317049186688 
0.0313356374171 
0.0311545136803 
0.0309534354802 
0.0308022913567 
0.0303547513782 
0.0299345208517 
0.0297131362539 
0.0295164835665 
0.0291124139724 
0.028657247458 
0.0281212553541 
0.0278183414353 
0.0274636505003 
0.0272066971118 
0.0268778316896 
0.0263877007637 
0.0258497991554 
0.0253766530073 
0.024921810865 
0.0246106348982 
0.0242955371641 
0.0239856664814 
0.0235958632773 
0.0231798336061 
0.0228996977422 
0.022626147763 
0.0222558719652 
0.0220459675854 
0.0218411831566 
0.0213732676046 
0.0209179246548 
0.0204806468792 
0.0200661476002 
0.0196207135787 
0.0191982198131 
0.0189433741637 
0.0185323098314 
0.0180880040865 
0.0178680683114 
0.0183573151713 
0.0201029168588 
0.0223019088071 
0.0241542076943 
0.0255850662808 
0.0266368163595 
0.0274943294039 
0.0282097638889 
0.028907947363 
0.0291698154104 
0.0299843201884 
0.0294692830033 
0.0301465393612 
0.0299658836655 
0.0301001168616 
0.0298144353794 
0.0295521143658 
0.0289016271291 
0.0296338467028 
0.0300406574789 
0.0309119882838 
0.0316156286856 
0.0348132788398 
0.0371504753909 
0.0354529964634 
0.0342567384419 
0.0284016366805 
0.0274964154625 
0.0473865928988 
0.0507645759152 
0.0418133459513 
0.0259216875188 
0.0181121277451 
0.0172447503149 
0.0155772004051 
0.0140476615262 
0.0129264802808 
0.0124405474129 
0.0117183844379 
0.0114885855477 
0.0113743794055 
0.0114332267596 
0.0116929745966 
0.0121205494744 
0.0122204482102 
0.0127874905996 
0.0129998555243 
0.013424065746 
0.0137543599334 
0.0141843051904 
0.0147924371062 
0.0154301095404 
0.0161195296403 
0.0168132065292 
0.0175928701358 
0.0188294264177 
0.0208145880993 
0.0227493791036 
0.0244015817735 
0.0259268339691 
0.0273272013534 
0.0286728359356 
0.0297905303436 
0.0308744539071 
0.0319370561855 
0.0328800466543 
0.0337420470951 
0.0344499217718 
0.034892484899 
0.0353254464664 
0.035715843221 
0.0361729124366 
0.0364957760043 
0.037117426243 
0.0376788488928 
0.0380600594502 
0.0378885136938 
0.0378698821489 
0.0373412934812 
0.0371625658129 
0.0370454771235 
0.0366154717562 
0.0364577010508 
0.0363114696761 
0.0361655350775 
0.0356896646323 
0.0352394023754 
0.0350178917784 
0.0348480757434 
0.0344209962589 
0.0339617760261 
0.0333945849626 
0.0330395202725 
0.0326531344942 
0.0323762845065 
0.0320296066539 
0.0315632638176 
0.0310119293096 
0.030530323694 
0.0300378765317 
0.0297175311944 
0.0294006121873 
0.0290826427973 
0.0286468134268 
0.028287322548 
0.0279861664367 
0.0277050372576 
0.0273497591341 
0.0271213785425 
0.0268675229681 
0.026482856075 
0.0259884648926 
0.0254860182465 
0.0250302812577 
0.0245938193875 
0.0241950188139 
0.0239117863678 
0.023471261924 
0.0229905923428 
0.0227731143596 
0.0230662750668 
0.0247529157152 
0.027046447125 
0.0292365475565 
0.031065666473 
0.0325274705045 
0.0337757089705 
0.035184439365 
0.0365983933542 
0.0372853988421 
0.0386582749548 
0.0383826023839 
0.0396855332406 
0.0397206412785 
0.0400796689483 
0.0401762971424 
0.040375076561 
0.0399469792229 
0.0400655556553 
0.0409536682222 
0.0423884439492 
0.0448625122492 
0.0489108956517 
0.0507761591414 
0.0476890502911 
0.0457475990654 
0.0446996188175 
0.0441294112421 
0.0586018592886 
0.0609616465888 
0.0531970475632 
0.0363975476551 
0.0226053392729 
0.0203778310444 
0.0191561632333 
0.0176570209183 
0.0163355598665 
0.0153635829339 
0.0144898616916 
0.0141582570832 
0.0139856053444 
0.0140539952494 
0.0143522909619 
0.014751112078 
0.0147861942513 
0.0150389617862 
0.0150824351755 
0.0153538765452 
0.0155165385885 
0.0158612684372 
0.0163044507395 
0.0168970488828 
0.0176311221398 
0.0184545015828 
0.0193988867768 
0.0208598762595 
0.0229067812476 
0.0248637812004 
0.0265744670586 
0.0281718030943 
0.0296620889312 
0.0310773422793 
0.0322557658611 
0.03338321529 
0.0345069411923 
0.0354935235186 
0.0364163772048 
0.0371663001143 
0.037673469697 
0.0382053477669 
0.0386670425482 
0.0391586076734 
0.0395042476632 
0.040194481645 
0.0408155683983 
0.0412570532224 
0.0410777314217 
0.0410736875726 
0.0405520622152 
0.0403928180911 
0.0403262913749 
0.0398683335596 
0.0397047518417 
0.0395758591963 
0.0394344295922 
0.0389971617787 
0.0385569449101 
0.0383492605423 
0.0381852022719 
0.0377569728922 
0.0373092363618 
0.0367629701217 
0.0363553358677 
0.0359441610254 
0.0356390926562 
0.0352790375869 
0.0348387903729 
0.0343195949673 
0.0338468495224 
0.0333539952563 
0.0330519999574 
0.0327418528689 
0.0324242920147 
0.0319729532552 
0.0316274572775 
0.0313168639835 
0.0310274770779 
0.0306728434525 
0.0304570160918 
0.0301986656008 
0.0298435869004 
0.0293563419971 
0.0288536909414 
0.0284063000009 
0.0279978164377 
0.0275932963385 
0.0273059493252 
0.026919414212 
0.0264709446977 
0.0263100129548 
0.0264977903638 
0.0279512637881 
0.0301165307752 
0.0323529474429 
0.0343543404453 
0.03606435131 
0.0378244408953 
0.0394251118577 
0.0411666357485 
0.0420740600198 
0.0437392824517 
0.0441688718441 
0.0454887812321 
0.0458556305066 
0.0464433283967 
0.0469344336521 
0.0475777113985 
0.0478770001783 
0.049486633916 
0.0502780084512 
0.0524932883796 
0.0550039222243 
0.056864702021 
0.0585215303727 
0.0546673452718 
0.05103895805 
0.0538546914325 
0.0572354916744 
0.0658875855621 
0.0675738123602 
0.0612899707963 
0.0467203399138 
0.0276378643189 
0.0229593594726 
0.0213707744592 
0.0199460801515 
0.0184405091603 
0.0173311591684 
0.0165417871076 
0.0160995461974 
0.015896993493 
0.0160230379619 
0.0162385031325 
0.0165352892237 
0.0164943022794 
0.016445163109 
0.0163819182891 
0.0165114850009 
0.0165766572366 
0.0168312117079 
0.017238707836 
0.0178331748845 
0.0186366626463 
0.0195713650973 
0.0206763611031 
0.0222849929438 
0.0243622172599 
0.0263546946091 
0.0281167820213 
0.0297706391288 
0.0313323888431 
0.0327967020853 
0.034024885838 
0.0351665902792 
0.0363368929517 
0.03734104479 
0.0382849578411 
0.0390518801646 
0.0396091330333 
0.0402178150327 
0.0407339023578 
0.0412483301239 
0.0415987468087 
0.0422821773906 
0.042956990836 
0.0433970072656 
0.0432513938546 
0.0432731353865 
0.0427668429733 
0.0426258760089 
0.0425798581945 
0.0421333179938 
0.0419379617492 
0.0417778615769 
0.0416437720163 
0.0412773328931 
0.0408717246779 
0.0406709045068 
0.0404924324375 
0.0400752207603 
0.0396462490169 
0.0391576614497 
0.0386963973919 
0.0382683165117 
0.0379280065416 
0.0375550366266 
0.0371252333311 
0.036637497488 
0.0361755615601 
0.0357033379864 
0.0354263852373 
0.0351238797987 
0.0347977211669 
0.0343445069954 
0.0340233054335 
0.0337037674538 
0.0333856828263 
0.0330347932714 
0.0328324587918 
0.0325668847997 
0.03224117656 
0.0317686313499 
0.0312769963826 
0.030846094404 
0.0304837051544 
0.0300797010012 
0.0297699570868 
0.029431903963 
0.0290467526537 
0.0289528982184 
0.0290749109946 
0.0302937300796 
0.0322706878466 
0.0345012141703 
0.0365258173114 
0.0383666498274 
0.0402905997367 
0.0421717618405 
0.0440629278791 
0.0452013688552 
0.0468783171256 
0.0479156269486 
0.0491472336293 
0.0498179924248 
0.05070008507 
0.0513221533327 
0.0521798928942 
0.0531191705333 
0.0543613787744 
0.0563100363333 
0.0583084302854 
0.0604450591167 
0.0615922852458 
0.0630677609197 
0.0591879591992 
0.054511415465 
0.0566458193247 
0.06436151018 
0.0692646622531 
0.071241308656 
0.0666234312405 
0.0558056650256 
0.0334762476725 
0.0256158395629 
0.0231520477228 
0.0214728077706 
0.0200011751694 
0.0188486863886 
0.0180427571315 
0.0175266263174 
0.0172864051974 
0.0173798339299 
0.017554734625 
0.0177303559968 
0.0176172498751 
0.0173504224902 
0.0172211108443 
0.0172278320932 
0.0172615274846 
0.0174851053299 
0.0178959052855 
0.0185171291037 
0.0193722232691 
0.0204207772078 
0.0216784133533 
0.0233864530231 
0.0255021806695 
0.0275370317948 
0.0293405050763 
0.0310448681349 
0.0326724986872 
0.0341852052457 
0.0354559131834 
0.0366002291516 
0.0377960454965 
0.038808007254 
0.039760504897 
0.0405200985633 
0.0411238422628 
0.0417831550814 
0.0423339595631 
0.0428769030212 
0.0432059972111 
0.043857959664 
0.0445535928661 
0.0449654791166 
0.0448818399393 
0.0449240845398 
0.044450139885 
0.0443158538772 
0.0442661655418 
0.0438481404487 
0.0436284741851 
0.0434042158931 
0.0432629541109 
0.0429694019887 
0.0426123522057 
0.0424049207838 
0.0422038741158 
0.0418116021009 
0.0414118458943 
0.0409886302896 
0.0404834461205 
0.0400420745125 
0.0396649080442 
0.0392738860323 
0.0388410825303 
0.0383729607694 
0.0379260022998 
0.0374851345281 
0.0372291983478 
0.0369269957828 
0.0365867120577 
0.0361367106812 
0.0358491509497 
0.0355248620266 
0.0351752776231 
0.0348164553704 
0.0346180565816 
0.0343461027956 
0.0340398226959 
0.0335816091534 
0.0331034548115 
0.032683534383 
0.0323698132567 
0.0319852401378 
0.0316547865304 
0.0313453471748 
0.0310143261017 
0.0309719495426 
0.0310662950576 
0.0320832773854 
0.0338652239309 
0.0359964523906 
0.0380386494391 
0.0399339283675 
0.0419593219546 
0.0439718049927 
0.0459219447544 
0.0473219844893 
0.0489633529801 
0.0504230998635 
0.0515401751057 
0.052467972983 
0.0533513650452 
0.0542486103614 
0.0552258652687 
0.0565881784851 
0.0577978846628 
0.0599082178259 
0.0616059885889 
0.0638158292153 
0.064742177548 
0.0658061456293 
0.062179332518 
0.0574993000992 
0.0568804160995 
0.0660730885443 
0.0696649946327 
0.0726378605953 
0.0697850400442 
0.0630094497764 
0.0399574652157 
0.0286074232872 
0.0248375223357 
0.0227926776119 
0.0211850522125 
0.020046943536 
0.0191489987144 
0.0186637763495 
0.0183348642994 
0.0183674845037 
0.0184707707913 
0.0185257534735 
0.0183580002787 
0.0179542683017 
0.0177805207897 
0.0177110414791 
0.0177479471692 
0.0179658700928 
0.0184078277101 
0.0190639294571 
0.0199757503374 
0.0211282957287 
0.0225233900825 
0.0243235093661 
0.0264913416609 
0.0285622797387 
0.0303951633995 
0.0321507493411 
0.0338449156907 
0.0354075434219 
0.0367114398278 
0.0378484993201 
0.0390606084318 
0.0400725012186 
0.0410351769938 
0.0417668356324 
0.0424162482151 
0.0431141477402 
0.0436719598281 
0.044234290832 
0.0445348044309 
0.0451567670218 
0.0458321954605 
0.0462067095127 
0.0461966160396 
0.0462475987005 
0.0458229267925 
0.0456876003614 
0.0456150924468 
0.0452212209324 
0.044985877191 
0.0446887427498 
0.0445314435745 
0.0442952238083 
0.0439954695013 
0.043771208017 
0.0435493437219 
0.0431913321381 
0.0428301578339 
0.0424675734514 
0.0419275908447 
0.041481428536 
0.0410641090801 
0.0406446992896 
0.040202664133 
0.0397434431236 
0.0393103874005 
0.0389014834663 
0.0386663827777 
0.038357060802 
0.0380049940813 
0.0375627763422 
0.037304549357 
0.03698369025 
0.0366112997485 
0.0362304773109 
0.036018201388 
0.0357458385969 
0.035438765156 
0.0349976098448 
0.0345335756114 
0.0341171174028 
0.0338415147408 
0.0334937040381 
0.0331513272416 
0.0328602935552 
0.0325682137909 
0.0325432275975 
0.0326278865003 
0.0334921569917 
0.0350816277527 
0.0370790155372 
0.0390709580559 
0.0410092938724 
0.0430890815826 
0.0451942271898 
0.047166065144 
0.0487804167761 
0.0504096393439 
0.0521341236525 
0.0531438951298 
0.054288788429 
0.0551612391775 
0.0563045066558 
0.0574408834911 
0.0588753090182 
0.060216935933 
0.0621886917706 
0.063922793301 
0.0657653330513 
0.0667432525798 
0.0673685723241 
0.0640409461881 
0.0599797271983 
0.0570834009197 
0.0648434402908 
0.0681801767222 
0.0723427950179 
0.0712438383755 
0.0681740186844 
0.0468632391993 
0.0320210910748 
0.0266641648045 
0.0240366986254 
0.0222439665756 
0.0210119981137 
0.0200242999154 
0.0195054475551 
0.0191585249345 
0.019106319589 
0.0191008434161 
0.0190536508398 
0.0188488099113 
0.018349069553 
0.0181682330165 
0.0180627761711 
0.0181291135735 
0.0183606539467 
0.0188464331897 
0.019552071303 
0.0205243513156 
0.0217652032426 
0.0232772093419 
0.0251847108252 
0.0274076727574 
0.0295061942646 
0.0313577323671 
0.0331585950297 
0.0349184870665 
0.0365376485507 
0.0378652023575 
0.0389945420942 
0.0402083291339 
0.0412239085773 
0.0421955040938 
0.0428965668992 
0.0435723622677 
0.0443060302994 
0.0448474635386 
0.0454159072913 
0.0457012779701 
0.0462855865933 
0.0469033633869 
0.0472435978127 
0.0473055601779 
0.0473517621544 
0.0469970551426 
0.0468590180826 
0.0467433645603 
0.0463649635764 
0.0461346117011 
0.0457687485633 
0.0455805057123 
0.0453947442408 
0.045149576947 
0.0449039940153 
0.0446551630836 
0.0443377482801 
0.0440274874199 
0.0437036777302 
0.0431446087561 
0.042698453188 
0.0422377069614 
0.0417840181699 
0.0413310145935 
0.0408727264168 
0.0404600912959 
0.0400747449975 
0.039855119747 
0.039536607958 
0.0391799097097 
0.0387436076961 
0.0385076170254 
0.0381910017794 
0.037809802052 
0.0373983129189 
0.0371553809381 
0.0368826028867 
0.0365618265211 
0.0361396531993 
0.0356886697022 
0.0352767809263 
0.0350253139521 
0.0347159198085 
0.0343691275042 
0.0340891884532 
0.0338241428608 
0.0337915922787 
0.0338626266838 
0.0346011139784 
0.0360207423362 
0.037870994507 
0.0398018495015 
0.0417305150929 
0.043835037552 
0.046010791798 
0.0479853020132 
0.0497687668928 
0.0513676501862 
0.0532870391725 
0.0542229481886 
0.0555344133349 
0.0564212941553 
0.057785967763 
0.058830918363 
0.0604507140701 
0.0618197679507 
0.0638522033456 
0.065440658612 
0.0670494557819 
0.0677796415531 
0.0682162443085 
0.0651199507002 
0.0618249664987 
0.0578008621284 
0.0628028260862 
0.0658576806659 
0.0709150937314 
0.0713861158176 
0.0714325700023 
0.0536814110477 
0.0359021414362 
0.0287254288877 
0.0253370258153 
0.0232411825863 
0.0218593062199 
0.0207879858418 
0.0202159421631 
0.0198153265902 
0.0196600000248 
0.0195613412319 
0.0194226073183 
0.0191871091463 
0.0186308313166 
0.0184536881668 
0.0183411645587 
0.018459774118 
0.0187186854896 
0.0192513895894 
0.0200145600135 
0.0210591386097 
0.0223752733604 
0.0239932671952 
0.0260147530807 
0.0282886057307 
0.0304028895417 
0.0322712886067 
0.0341182851987 
0.035933844871 
0.0376151480026 
0.0389545250437 
0.0400833573813 
0.041281906347 
0.0423026112711 
0.0432815925536 
0.0439571532016 
0.0446382226065 
0.0454013009855 
0.0459158084095 
0.0464828489227 
0.0467650014008 
0.0472926945211 
0.0478409788403 
0.0481445173886 
0.0482717696467 
0.0483043422351 
0.0480327091905 
0.0478909095738 
0.0477247048618 
0.0473512692718 
0.0471406871974 
0.0467201771191 
0.0464887625719 
0.0463486177878 
0.0461423171549 
0.045855928911 
0.0455955143911 
0.045326535137 
0.0450740364754 
0.0447615781558 
0.0442053533408 
0.0437632376961 
0.0432570622179 
0.0427618282644 
0.0423021899813 
0.0418412127988 
0.0414510550983 
0.0410810244495 
0.0408697297383 
0.040549025531 
0.0401912825497 
0.0397520919276 
0.0395329876432 
0.03921813929 
0.0388392350684 
0.0383910939067 
0.0381056614671 
0.0378287622554 
0.0374911576649 
0.0370854430418 
0.0366505869049 
0.0362403989569 
0.0360009596971 
0.0357246982935 
0.0353776815788 
0.0350994271393 
0.034855882363 
0.034807610245 
0.0348521400952 
0.0354809796898 
0.0367491689967 
0.0384583364308 
0.0403198046454 
0.0422089629589 
0.0443305426227 
0.0465422649906 
0.0484949242093 
0.0504015905495 
0.0519944131406 
0.0540459901293 
0.0549497163975 
0.056407407671 
0.0572556086768 
0.0588190271802 
0.0597951503812 
0.0616201203314 
0.062831572232 
0.0649589189121 
0.066335614851 
0.0678429723199 
0.068302652745 
0.0685406543296 
0.0656943011526 
0.0630394042812 
0.0588074338129 
0.0611379101616 
0.0634840595956 
0.0688714237274 
0.0705623415523 
0.0730788254017 
0.0601045783705 
0.0402778229208 
0.0310953053467 
0.0267928612863 
0.0242642881461 
0.0226931719303 
0.0214774833045 
0.0208296511476 
0.0203707312284 
0.0201112779487 
0.0199100291436 
0.0196917949107 
0.0194001113547 
0.0188615590227 
0.0186874307443 
0.0185846260924 
0.0187616443745 
0.0190662007681 
0.0196490205714 
0.0204750957642 
0.0215984221903 
0.0229991810607 
0.0247130998129 
0.0268427169701 
0.0291615428562 
0.0312778328348 
0.0331667520148 
0.0350644089299 
0.0369095322072 
0.0386513017125 
0.0399963816969 
0.0411282555436 
0.0423027599449 
0.0433242545062 
0.0443086400933 
0.0449626631214 
0.0456383825697 
0.0464195051833 
0.0469109697124 
0.0474744743941 
0.0477533219277 
0.048218683232 
0.0486914906553 
0.0489605595046 
0.049137546692 
0.0491484479298 
0.0489709338678 
0.0488225070229 
0.0486019953485 
0.0482275743836 
0.048041128511 
0.0475829761005 
0.047307272301 
0.0472000563161 
0.0470107831849 
0.0466859825494 
0.0464231315336 
0.0462026371388 
0.0460001009943 
0.0456841473901 
0.0451424380575 
0.0447111628516 
0.0441596997344 
0.0436239261557 
0.043166079622 
0.0427026986776 
0.0423274722063 
0.0419651998862 
0.0417572329073 
0.0414334316371 
0.0410751849877 
0.040632583032 
0.0404254574866 
0.0401046324099 
0.0397305634605 
0.0392435763612 
0.0389131940385 
0.0386306945025 
0.0382699988276 
0.0378779298781 
0.0374675335392 
0.0370511016168 
0.0368165725841 
0.0365612790894 
0.0362208899978 
0.0359423094787 
0.0357103235995 
0.0356493154412 
0.0356637303165 
0.0362016455218 
0.0373411224355 
0.0389056872374 
0.0406896442959 
0.0425240310472 
0.044644142839 
0.0468570880346 
0.0487865059395 
0.0507613590934 
0.0523922113882 
0.0543782929129 
0.0554618525648 
0.0569485754148 
0.0578169727727 
0.0595365456362 
0.0603907126218 
0.0623959558029 
0.0634895751167 
0.065672913082 
0.0668805453102 
0.0682113888759 
0.0685179648087 
0.0685326194232 
0.0659259468223 
0.0637477832729 
0.0597764498978 
0.060211617546 
0.061495998104 
0.0666415277505 
0.0690996188544 
0.073456913142 
0.0657490426092 
0.0450618686999 
0.033845610099 
0.0284630715549 
0.0253815765151 
0.0235589402764 
0.0221671431052 
0.0214087084247 
0.0208639442145 
0.0204977264827 
0.0201941765173 
0.019914349661 
0.0195797480873 
0.0190953006414 
0.0189030408063 
0.0188268865723 
0.0190632122527 
0.019420529608 
0.020051778768 
0.0209539621198 
0.022154246093 
0.0236442285572 
0.0254547643278 
0.0276854770483 
0.0300457140312 
0.0321532068812 
0.0340555516744 
0.03600097704 
0.0378695488844 
0.0396510059502 
0.0410108197499 
0.0421464486374 
0.0432950296191 
0.0443197382038 
0.0452873444195 
0.045943033348 
0.0466096549981 
0.0473994399246 
0.0478719677072 
0.0484195293262 
0.0486871529099 
0.0491066478336 
0.0495051050221 
0.0497297143217 
0.0499392078332 
0.0499269930416 
0.0498127267142 
0.0496795979008 
0.0494057616179 
0.0490354081489 
0.0488556233133 
0.0483940354776 
0.0480726948061 
0.047977541498 
0.0477918992814 
0.0474363978317 
0.0471781014493 
0.0469972158914 
0.0468206791747 
0.046504706733 
0.0459758304475 
0.0455508741111 
0.0449662120511 
0.044404990717 
0.0439598186991 
0.0434907468498 
0.0431247193239 
0.0427595720242 
0.0425500072019 
0.0422046444284 
0.0418446565539 
0.0414125650123 
0.0412061029153 
0.0408641768891 
0.0405132903387 
0.0399966413409 
0.0396230450167 
0.0393279955196 
0.0389545130887 
0.038571365705 
0.038179251893 
0.0377533319325 
0.0375196446191 
0.0372815006671 
0.0369296637135 
0.0366469238325 
0.0364301837309 
0.0363592146568 
0.0363473961899 
0.0368166741863 
0.0378321953719 
0.0392603880084 
0.0409501730494 
0.0427226905993 
0.0448265062526 
0.0470041934613 
0.0489033552253 
0.0509206383376 
0.0526612565265 
0.0545118942077 
0.0557717367486 
0.0571877998422 
0.0582286039965 
0.0598987119239 
0.0608164684873 
0.0628818684145 
0.0638585545537 
0.0661077520777 
0.0670755562928 
0.0683108843479 
0.0684781370197 
0.0682717048686 
0.0659119298493 
0.0640897875928 
0.0605038823017 
0.059911051033 
0.0600374245642 
0.0644936139211 
0.0673241341403 
0.0728987701646 
0.0702922933503 
0.0501497644602 
0.0369969257305 
0.0304006092369 
0.0266542165861 
0.0244976939188 
0.0229009733944 
0.0219902996448 
0.0213390968022 
0.0208651970955 
0.0204687997393 
0.0201237006714 
0.0197634707107 
0.0193224484748 
0.0191101452617 
0.0190857565068 
0.01937810344 
0.0197930389477 
0.0204671038339 
0.0214555721363 
0.0227398749988 
0.0243221056146 
0.0262308400426 
0.0285523823854 
0.0309497519136 
0.0330376183998 
0.0349655648303 
0.036942263446 
0.0388158111546 
0.0406238111186 
0.0420166403483 
0.0431566515337 
0.044274073438 
0.0453020491634 
0.0462439067436 
0.0469205513494 
0.0475781054906 
0.0483633061784 
0.0488346860772 
0.0493499963644 
0.0495893178298 
0.049956406123 
0.0502942181678 
0.0504751705422 
0.0507016426601 
0.0506672120149 
0.0506067898443 
0.0504834189065 
0.0501695944923 
0.049809131824 
0.0496219977904 
0.0491747331422 
0.0488091989481 
0.0487084999778 
0.0485069788914 
0.0481370905086 
0.0478855900636 
0.0477253473867 
0.0475559832397 
0.0472574770052 
0.0467317937903 
0.0463090432703 
0.045712873085 
0.0451357716256 
0.0447117040385 
0.0442299250638 
0.0438668266008 
0.0435072698707 
0.0432858070102 
0.0429075876204 
0.0425346811215 
0.0421283269796 
0.0419117249939 
0.0415517443375 
0.041209133376 
0.0406751337713 
0.0402616811227 
0.0399512930888 
0.0395639405655 
0.0391922731614 
0.0388154047059 
0.0383918898853 
0.0381486531025 
0.0379043520245 
0.0375536755361 
0.0372651068843 
0.0370638581013 
0.036989497849 
0.0369470481887 
0.0373502770498 
0.0382459267565 
0.0395523677292 
0.041133383331 
0.0428408795856 
0.044903492449 
0.0470258394225 
0.0489048744614 
0.0509064279724 
0.0527450289478 
0.054522900116 
0.0558956983195 
0.057263700286 
0.0584666332484 
0.0600301078345 
0.0610859697111 
0.0630406668554 
0.0640860129182 
0.0662167227774 
0.0670612493117 
0.0681841159158 
0.0682318896073 
0.0678074236414 
0.0657254807069 
0.064123864792 
0.060945348169 
0.0599532925694 
0.0590677489169 
0.062631400058 
0.0654237324937 
0.0716702008593 
0.073483349849 
0.0554182393938 
0.0405571697233 
0.0326474196926 
0.028131656647 
0.0255514535491 
0.0237201458959 
0.0226183687346 
0.0218394426572 
0.0212371877443 
0.02075222394 
0.020353176863 
0.0199679010075 
0.0195635595023 
0.0193428084951 
0.0193880877983 
0.019718827151 
0.0201921754652 
0.020916105779 
0.0219893489213 
0.0233600890873 
0.0250387219409 
0.0270455717124 
0.0294468043002 
0.0318710624494 
0.0339364770205 
0.0358957773881 
0.0378846062825 
0.0397691527139 
0.0415839126301 
0.0430176055809 
0.0441749055669 
0.0452619737497 
0.0462881790906 
0.0472105128058 
0.0479174768404 
0.0485632405716 
0.0493334531148 
0.049816094593 
0.0502739436597 
0.0504756677475 
0.0507916721104 
0.0510824379185 
0.0512071773376 
0.0514557695242 
0.0513892100138 
0.0513750993988 
0.0512466153532 
0.0509090951174 
0.0505726307735 
0.0503580690625 
0.049936896757 
0.0495371580814 
0.049404445068 
0.0491797362272 
0.0488082831313 
0.0485668457087 
0.0484031182697 
0.048227894298 
0.0479617277218 
0.0474280640314 
0.0470006273827 
0.046412199078 
0.0458236033259 
0.0454356276823 
0.0449372859585 
0.0445727952502 
0.0442131235444 
0.0439761769813 
0.0435617418869 
0.0431746231285 
0.0427928453821 
0.0425556725754 
0.0421816880916 
0.0418264350751 
0.0412962814891 
0.0408502565044 
0.0405126266267 
0.0401317603703 
0.0397722656948 
0.0393982739761 
0.0389827817207 
0.0387183208369 
0.0384697447952 
0.0381028681162 
0.0378192766577 
0.0376254351614 
0.0375636600311 
0.0375040100229 
0.0378266246559 
0.0386076929758 
0.0398007456808 
0.0412693506043 
0.0429096104419 
0.0449119721481 
0.0469594878307 
0.0488640883524 
0.0508129579179 
0.0526926789001 
0.0544262979685 
0.0558739811028 
0.0571866685074 
0.0585516095392 
0.060023617428 
0.0612315389155 
0.0630549024516 
0.0641689636052 
0.0661440287494 
0.0668787961323 
0.067906246985 
0.0678113227777 
0.0672421160419 
0.0653821545816 
0.0639496241515 
0.0611099775244 
0.0600861099235 
0.0584339454503 
0.0610828388807 
0.0635574968136 
0.0700047961537 
0.0752571375932 
0.0606479354615 
0.0445287388451 
0.0352501200685 
0.02985729283 
0.0267565515779 
0.0246564412889 
0.0233193592443 
0.0223828902579 
0.0216438186948 
0.0210677327279 
0.0206167071945 
0.0202086734533 
0.0198343969379 
0.0196142521424 
0.019717589976 
0.0200841457207 
0.020628112615 
0.0214054136164 
0.0225619437944 
0.0240136708995 
0.0257830620041 
0.0278914726566 
0.0303576515684 
0.0328118242375 
0.0348667265332 
0.0368395569394 
0.038840641673 
0.0407380324458 
0.042557403433 
0.0440232932184 