/*--------------------------------*- C++ -*----------------------------------*\
| =========                 |                                                 |
| \\      /  F ield         | OpenFOAM: The Open Source CFD Toolbox           |
|  \\    /   O peration     | Version:  3.0.0                                 |
|   \\  /    A nd           | Web:      www.OpenFOAM.org                      |
|    \\/     M anipulation  |                                                 |
\*---------------------------------------------------------------------------*/
FoamFile
{
    version     2.0;
    format      ascii;
    class       volScalarField;
    location    "0";
    object      pd;
}
// * * * * * * * * * * * * * * * * * * * * * * * * * * * * * * * * * * * * * //

dimensions      [0 2 -2 0 0 0 0];

internalField   nonuniform List<scalar> 
15600
(
62.8466516913284
44.8905797763245
15.7612238612734
-21.6192154102795
-61.1967329009926
-92.3257366827504
-111.983741446738
-121.734575410265
-123.97505993614
-120.788971592333
-114.183467456037
-106.538539227471
-98.9911281489771
-91.8135449135713
-85.0174502262479
-78.4612390090588
-71.763873562554
-64.3843941349985
-56.16419266026
-47.1007292357118
-37.2525777558409
-26.7655382472061
-16.0007550444213
-5.23555227342823
5.4023874920302
15.778187706286
25.6563517948982
34.5130707522925
40.6229014323598
44.3715829001783
47.0668372507981
49.1552838099916
50.8532119167279
52.2815784816883
53.5152971894833
54.6037315620987
55.5810710588098
56.4717562017005
57.2938346685926
58.0608575047286
58.7832693657839
59.469186239594
60.1250538032944
60.75600235411
61.366204483822
61.9590441258036
62.5373262268418
63.1033479920685
63.6590523012865
64.2060518089646
64.7457284379224
65.2792466498387
65.807621544426
66.3317073857258
66.8522775260024
67.3699922026679
67.8854718128301
68.3992482903747
68.9118526982181
69.4237458547786
69.9354150357194
70.4472944107034
70.9598696902333
71.4736030736631
71.9890222359133
72.5066605762308
73.0271324894551
73.5510935235926
74.0793123598133
74.612649132797
75.1521172465246
75.6988641034059
76.2542688608056
76.8199330145441
77.3977912697159
77.9901290772404
78.5997383773291
79.2299754731325
79.8849938037399
80.5698897311627
81.2910698044464
82.0565826898332
82.8768035641734
83.7651806567948
84.7396235872317
85.8243505852502
87.0532296870588
88.4750743373585
90.1639585464626
92.2391380943289
94.9130562178026
98.6201768646217
104.66824906341
113.485454907752
123.364836724025
133.760316148367
144.427655463594
155.226711452136
166.027517843903
176.55000845184
186.428639103274
195.515721508769
203.754793986716
211.146460639168
217.849184799699
224.407940201359
231.206548321727
238.392524568984
245.952199457296
253.614047537501
260.244806538766
263.459792531305
261.249976151356
251.53047397118
231.908162337278
200.803683233041
161.218370638355
123.804794163924
94.6115696670652
76.617290635786
62.8599365949926
45.133428189916
16.8472624173969
-19.2646752703108
-57.3740673019256
-87.4376372769141
-106.514994466543
-116.045845871592
-118.317528956923
-115.347328288544
-109.078666939612
-101.764130358396
-94.4993833379507
-87.5616102522774
-80.9679360581707
-74.5827554630802
-68.0466944313198
-60.8605277609993
-52.871444086535
-44.076704632007
-34.5361437658461
-24.3949564610078
-13.9904762480751
-3.58579752424624
6.68979123510591
16.6998482798103
26.2095245706018
34.7058314427379
40.654575163035
44.3852390971721
47.0745326810056
49.1602380236073
50.8566291508152
52.2840467171128
53.5171377394654
54.6051398203219
55.5821688855977
56.4726264179575
57.2945322647549
58.0614234561156
58.7837318619219
59.469567560484
60.1253694843921
60.7562657281546
61.3664246568503
61.9592292783149
62.5374817091097
63.1034792372762
63.6591627056298
64.2061451046747
64.7458066610806
65.2793122801578
65.8076757308834
66.3317519699811
66.8523131519839
67.3700205215765
67.8854928658085
68.3992634451339
68.9118614019516
69.4237491715339
69.9354120412237
70.4472860036448
70.959854848229
71.4735822774005
71.9889941381286
72.5066250053414
73.0270878855393
73.5510394609517
74.0792470214625
74.6125713427863
75.152024336606
75.6987540403506
76.2541379891755
76.8197781912241
77.3976070026897
77.9899101652983
78.5994763929024
79.2296616759295
79.8846148554831
80.5694301446641
81.2905071616187
82.0558893942854
82.8759391106798
83.7640905154224
84.7382253500027
85.8225239517032
87.0507817941283
88.4716900425856
90.1590601013606
92.2315507693783
94.8996786614704
98.5900312884596
104.479807931816
112.932644754013
122.430448921461
132.441624180983
142.724737324539
153.139896560364
163.556868272713
173.712031203964
183.26617286072
192.072193273605
200.071802704837
207.265527032296
213.805411917172
220.191817533641
226.78580466802
233.728691417118
241.001579880086
248.328213864359
254.618495785612
257.620219471574
255.389266644901
245.908436407519
226.896222842531
196.900267150757
158.83007823947
122.709621217536
94.3660714204567
76.6031960566345
62.889359083413
45.5003961245287
18.3777266177033
-15.9926856614412
-52.0978669814074
-80.692977441341
-98.9612269540218
-108.181918836865
-110.492551936265
-107.816304865651
-102.00677403691
-95.1472901364653
-88.2749697939292
-81.6713225630618
-75.3608919548282
-69.2169636699281
-62.9094856581854
-55.9933169618418
-48.3251030593723
-39.9023140849927
-30.7860331760123
-21.1196554853261
-11.2101761460399
-1.30177394594844
8.47520057546456
17.9827914739327
26.9888246554289
35.0022834932567
40.7233831603473
44.4156262856349
47.0917580637564
49.1713361294231
50.8642869503756
52.2895788115069
53.5212637640667
54.6082969032581
55.584630253189
56.4745774062539
57.2960964113827
58.0626923868636
58.7847689349774
59.4704225765515
60.1260774260613
60.756856298062
61.3669184155853
61.959644449829
62.5378303875097
63.1037735402242
63.6594103352407
64.2063543009949
64.7459821250314
65.2794595008487
65.8077973134019
66.3318520420227
66.8523932127027
67.3700841181013
67.8855402181738
68.3992974303313
68.911880983757
69.4237565455273
69.9354053556532
70.4472670593625
70.9598215375274
71.4735354884693
71.9889310403565
72.5065451198357
73.0269878426222
73.5509181721242
74.0791005206596
74.6123968888086
75.1518160006846
75.6985072376216
76.2538446016268
76.8194310093366
77.3971938708037
77.9894192129307
78.5988889431627
79.2289579066575
79.8837650980884
80.5683995378064
81.2892456667803
82.05433489811
82.8740010077066
83.7616463224754
84.7350907579317
85.818429207733
87.0452953211008
88.4641057520512
90.1480861902719
92.2145652323757
94.8698984331212
98.524126487818
104.190897993988
112.161488429943
121.150024058726
130.650645312147
140.42573046753
150.334676032371
160.246678513036
169.917812222027
179.040226350444
187.468779708478
195.143536713214
202.064845863773
208.375102535773
214.519455482217
220.829163629283
227.436202381013
234.314587902949
241.183901272689
247.013055057347
249.721076001825
247.454280404567
238.290106415791
220.096607573197
191.583463093774
155.534574816719
121.167102276774
93.9943566477285
76.5722485075218
62.9278544141197
45.8850293404787
19.8944955913362
-12.7847954499203
-46.9502191132807
-74.1126125933003
-91.5836413555046
-100.494319058965
-102.837392185063
-100.442564601168
-95.0739333864323
-88.65500546756
-82.1650398393729
-75.8879197244992
-69.8552113185116
-63.9494193680566
-57.8689680353459
-51.2189033094278
-43.8661140921206
-35.8087467955688
-27.1087952421575
-17.9069651053469
-8.48218367807289
0.939508536982891
10.2279479341232
19.2447823172351
27.7624110124285
35.316683905188
40.8122132617442
44.456108689125
47.1149105884962
49.1862793273514
50.8746062882313
52.2970365327781
53.5268279752057
54.6125549376152
55.5879506373781
56.4772092616185
57.298206851738
58.0644043887064
58.7861683947986
59.471576252132
60.1270329126829
60.7576532227923
61.3675848523078
61.9602046632868
62.538301067741
63.1041706932131
63.6597446412948
64.2066365581484
64.7462189676321
65.2796580868363
65.8079614862058
66.3319870873106
66.8525014401573
67.3701699388648
67.8856042809697
68.3993431997012
68.9119075019736
69.4237663513981
69.935396428616
70.4472413608165
70.9597766302968
71.4734721531407
71.9888458659337
72.5064371559437
73.0268528939911
73.5507544177114
74.0789028744849
74.6121613703451
75.1515349384282
75.6981741390528
76.2534487998196
76.8189624125373
77.3966364411209
77.9887565452268
78.5980962694851
79.2280080485054
79.8826184876624
80.5670087727945
81.2875437686192
82.0522375580615
82.8713865650731
83.7583491240301
84.730863182309
85.8129073763421
87.0378993524197
88.4538853286767
90.1333094044578
92.1917308617549
94.8301955301001
98.4384270638147
103.88433055796
111.398210330762
119.896658264967
128.903655972709
138.186807638684
147.605481631473
157.029213279033
166.232400281555
174.935623441365
182.996636962653
190.354286458789
197.008417973683
203.091188271601
208.997202849657
215.02906555951
221.308992590055
227.804364252784
234.232554382143
239.620108218938
242.046375933983
239.747438777282
230.894373073415
213.498714180063
186.419444605453
152.31298506666
119.640355648398
93.6050728069039
76.5320578842879
62.9750708386147
46.2836779263063
21.3840687360204
-9.67133399263823
-41.9829978768594
-67.7672007708136
-84.4650784922287
-93.071901486932
-95.4425242017367
-93.3149477218397
-88.3649811629739
-82.3673939000676
-76.2454832030833
-70.2837426463316
-64.520275304217
-58.8470509251537
-52.9897865689086
-46.5992800148063
-39.5529858007079
-31.8500850736275
-23.5531079194732
-14.7992354322934
-5.84189657729526
3.10980274893046
11.9268716009376
20.4715216168082
28.522288374771
35.6451179569175
40.9198589620352
44.5067908388216
47.1441722755091
49.20521175078
50.8876958954202
52.3065018605479
53.5338937342573
54.6179631042445
55.5921690429001
56.4805529237338
57.3008887785956
58.0665798671921
58.7879471415398
59.4730424762276
60.1282476473257
60.7586661659207
61.3684321526004
61.9609167016018
62.5388995462338
63.1046755303741
63.6601697980055
64.2069953124345
64.7465201710341
65.2799105216887
65.8081704115418
66.3321589078073
66.8526394533206
67.3702791787176
67.8856860850968
68.399401305283
68.9119413958409
69.4237785886565
69.9353852112212
70.4472084330339
70.9597195367286
71.4733912343521
71.9887374300575
72.5062995828754
73.0266813597566
73.5505461056396
74.0786516917209
74.6118618593941
75.1511777585171
75.6977506744978
76.2529458829446
76.8183666663116
77.3959280271157
77.9879139868077
78.5970887734958
79.2268003862199
79.8811611217605
80.5652409497307
81.2853812111842
82.0495723370676
82.8680649920366
83.7541600790807
84.7254938246057
85.805895657289
87.0285126618384
88.4409204225906
90.114585696808
92.1628641784807
94.7804483950557
98.3340107218341
103.563537787211
110.648813874444
118.679970378181
127.213519385204
136.023724101916
144.970759768893
153.925390088191
162.67896639154
170.977733071868
178.683172369903
185.73333345159
192.127236845655
197.986534752391
203.659949730438
209.422702879577
215.387004669223
221.514079476119
227.520845293148
232.489398240424
234.647898004708
232.320869371415
223.771128822075
207.146691442882
181.443072171008
149.188996582177
118.141707930583
93.201917905835
76.4830561879887
63.0306564630836
46.6948053777691
22.843580407821
-6.65785162630698
-37.2048165024989
-61.6689930936232
-77.6205375170695
-85.9311438258422
-88.3249488739719
-86.4503330424448
-81.8964493145724
-76.3002739016404
-70.5313443362141
-64.8731961612289
-59.3699693553536
-53.923251689795
-48.284760909578
-42.1467475046865
-35.3973388661087
-28.0370383449148
-20.1285477040607
-11.8048315794885
-3.29628402169669
5.20367743582876
13.5680591319442
21.6605152494515
29.2670602834337
35.985633355709
41.0452207048268
44.567743535298
47.1797161022214
49.2282805377856
50.9036695211617
52.318061869886
53.5425285576787
54.6245742206581
55.5973274710409
56.4846420087707
57.3041695363191
58.0692410772607
58.7901235881771
59.4748364334806
60.1297343720519
60.7599057040039
61.3694692371724
61.9617879877949
62.5396322046312
63.1052933588944
63.660690340691
64.2074342949836
64.746888892871
65.2802193436668
65.8084263144858
66.3323692559768
66.8528087310429
67.3704129251586
67.8857864965354
68.3994722813639
68.9119830255536
69.4237933192401
69.9353716203358
70.4471678931242
70.9596496941078
71.4732918355176
71.9886046247437
72.5061309172153
73.0264715086389
73.5502910380193
74.0783443644205
74.6114951386474
75.1507407691302
75.6972323658899
76.2523306143842
76.8176374729268
77.3950612299071
77.9868826767123
78.5958559808723
79.225322314481
79.8793779452038
80.5630778047214
81.2827359379439
82.0463121399026
82.8640029513141
83.7490375438626
84.7189303473179
85.797327166493
87.0170490473844
88.4250984041632
90.0917691014921
92.1277918333784
94.7205718219579
98.2119278057134
103.230346310943
109.91414409985
117.501103762962
125.581739427601
133.938277237635
142.43254235247
150.937328057492
159.259653815419
167.168900126777
174.530952450179
181.283453785732
187.424326021168
193.064624821883
198.511551118846
204.014266331178
209.674824958466
215.4487926461
221.054195567986
225.626430224277
227.531400129613
225.180395052772
216.925830806302
201.04513000743
176.658051191226
146.166236518546
116.673673533131
92.7864692546566
76.425608146402
63.0942619142244
47.1173947807704
24.2729921989213
-3.74335531779494
-32.6128334570491
-55.8146947745243
-71.0469730018232
-79.0692234334431
-81.4820174290838
-79.8463593530696
-75.6665835901495
-70.4522271108202
-65.0213629667832
-59.6551582716745
-54.4032825521537
-49.177026049662
-43.7527695257373
-37.8602395232236
-31.3981820396836
-24.3686489113917
-16.8341841121556
-8.92299424244136
-0.844698225895546
7.22179060368795
15.1521783781013
22.8123771920968
29.9970222541974
36.3368646877031
41.1872579795621
44.6389944515671
47.2217039402636
49.2556331636967
50.9226444211686
52.3318077297594
53.5528038102506
54.6324445065752
55.6034707368553
56.4895124866417
57.3080783726859
58.0724119277493
58.7927174630863
59.4769744706896
60.1315067420648
60.7613832444006
61.3707057008369
61.9628265842161
62.5405058286354
63.1060299146203
63.6613111347646
64.2079576154502
64.7473286332942
65.2805875294174
65.8087316767183
66.3326202222025
66.8530110239133
67.3705725508743
67.8859065894264
68.3995568203461
68.9120328319476
69.4238106373769
69.9353555305473
70.447119276209
70.9595663878926
71.4731728835735
71.9884460925688
72.5059294674302
73.0262213196232
73.5499867839098
74.0779780221381
74.6110577903684
75.1502198933511
75.6966143937616
76.251597317905
76.8167680723649
77.3940280618258
77.9856530543272
78.5943865425829
79.2235601968857
79.8772526433204
80.5604996573871
81.2795841680152
82.0424278606734
82.8591646448437
83.742936910269
84.7111168898534
85.7871310262948
87.0034179530331
88.4063024036822
90.0647121774843
92.0863500164159
94.6505237051558
98.0731939215179
102.886100001592
109.193775102027
116.359068838984
124.006959245073
131.928761202895
139.988753500771
148.062458492762
155.971375228016
163.50573659227
170.536351420429
177.000824153262
182.895733963799
188.321592030455
193.548081880941
198.799648887365
204.168157610997
209.603978781033
214.82763478335
219.025549650704
220.690977854369
218.320106109223
210.352654789806
195.188527138818
172.060127741916
143.243156501268
115.236189294412
92.3596973959147
76.3600970244781
63.1655252665428
47.5505849969965
25.6728744331628
-0.925280822822655
-28.2014151892252
-50.1971847156152
-64.7367991020563
-72.4784739089575
-74.9061710203966
-73.4958285864281
-69.6690119304328
-64.8174840481674
-59.71014417475
-54.6245525963675
-49.6154099546711
-44.6037099455252
-39.3891429838813
-33.7352665028322
-27.5512796930605
-20.8409583360449
-13.6663898640506
-6.15062119998397
1.51546101088027
9.16634971740121
16.6810490798342
23.9284799770099
30.712841390529
36.6976522064831
41.3449667919971
44.7205246324637
47.2702833553586
49.2874168863098
50.9447414461898
52.3478350619235
53.5647949112552
54.6416338283001
55.6106467588869
56.4952030648141
57.3126468334097
58.0761182943287
58.7957501577118
59.4794743441379
60.1335795957071
60.7631111874589
61.3721519471927
61.9640412257716
62.5415278650992
63.1068914622301
63.6620374824505
64.2085697047375
64.7478430995289
65.2810181307836
65.8090891063649
66.3329139226523
66.8532480499046
67.3707593872146
67.8860473559871
68.3996556135003
68.9120912171425
69.4238306787021
69.9353368054339
70.4470621746017
70.9594689175918
71.4730333705616
71.9882605019691
72.5056935254713
73.0259287161452
73.5496307773627
74.0775495520794
74.6105460467427
75.1496107303846
75.6958915072846
76.2507398004583
76.8157511150881
77.3928198213985
77.9842147884925
78.5926681616742
79.2214993401515
79.8747676050876
80.5574852883802
81.2759002443467
82.0378882152223
82.8535116571496
83.7358106319347
84.7019940767495
85.7752324430511
86.9875245751648
88.3844126049268
90.0332685436035
92.0383898791627
94.570310191981
97.9187966298711
102.53196622247
108.487027312787
115.252395853743
122.487167427584
129.992671076075
137.636384283484
145.297159397593
152.809882458084
159.983583950513
166.694376444773
172.880157283976
178.535971173574
183.751943693893
188.76390103264
193.772926487676
198.86073597175
203.972967795284
208.833859936276
212.678606238757
214.118133343557
211.731449313088
204.043227426521
189.569127227803
167.643255565228
140.41701642817
113.828640074927
91.9224771319458
76.2868833793662
63.2440811027292
47.9935290566536
27.0439675180671
1.79931707182592
-23.9642833199608
-44.8084217188133
-58.6813599596612
-66.1500786650629
-68.5886628869784
-67.3903929581176
-63.8962580177972
-59.3892307360252
-54.5913142478545
-49.7753729874855
-45.0006463538845
-40.1977612004987
-35.1883622935331
-29.7665200440562
-23.8516217093865
-17.4492906377727
-10.6208963533864
-3.48404795778093
3.78726417011003
11.0399300018175
18.1567573121784
25.010356293252
31.4152317746518
37.0669495752776
41.517381374745
44.8122723848798
47.3255865199769
49.323776739871
50.9700837800813
52.3662431211991
53.578580968657
54.6522054635791
55.618906389253
56.5017549724261
57.317908520826
58.0803878347552
58.7992444921438
59.4823550613829
60.1359687574035
60.7651028423719
61.3738191448596
61.9654413703003
62.5427062214276
63.1078847317822
63.6628750458721
64.2092754111145
64.74843638502
65.2815146598953
65.8095014662572
66.3332527711277
66.8535217504323
67.3709750053862
67.886209963486
68.3997694944315
68.9121586565694
69.423853614582
69.9353152655293
70.4469961076992
70.9593564487936
71.4728721443122
71.9880463051088
72.5054211881754
73.0255913131456
73.5492201919751
74.0770555604006
74.6099559200456
75.1489084563206
75.6950580447275
76.2497513350806
76.8145786919447
77.3914271106432
77.9825567611084
78.5906875806289
79.2191239594294
79.8719038901077
80.5540119642833
81.2716566246952
82.0326597355783
82.8470029485733
83.727608093564
84.6914989620206
85.7615527247628
86.9692701352819
88.3593061388981
89.9972929852177
91.9837765795515
94.4799799972344
97.7496886935818
102.169007350765
107.79320871729
114.179537782658
121.020230363987
128.127350268396
135.372248815402
142.637617213153
149.770725667742
156.597558622694
162.999791055891
168.915912559259
174.339281506751
179.349894075079
184.153052083921
188.927828946902
193.745926105902
198.548686591184
203.065125013181
206.57697491063
207.803843361501
205.405343962444
197.988663319837
184.178702285752
163.401032212285
137.684814738252
112.450268314449
91.4756171759458
76.2063545641678
63.3295510179234
48.4453948737035
28.3869414002042
4.43334429817211
-19.8952123084663
-39.640401258203
-52.8719831125612
-60.0752024104589
-62.5207422632352
-61.521688735179
-58.3408115738716
-54.1606215414998
-49.6584630306634
-45.1015691059472
-40.5532393469509
-35.9535883018206
-31.1448676173771
-25.9486389969424
-20.2941368288548
-14.1889124895011
-7.69338804956027
-0.919563545356483
5.97382191509573
12.8451305987211
19.5813945890979
26.0595177743427
32.1048556575432
37.4437855369172
41.7035671480842
44.9141330118304
47.3877269771224
49.3648540574366
50.9987964142003
52.3871347200448
53.5942448583864
54.6642262455405
55.6283036293238
56.5092122180182
57.323899452229
58.085250277071
58.8032250722688
59.4856371371311
60.1386913504987
60.7673725906467
61.3757193466566
61.9670371987357
62.5440495354044
63.1090170450014
63.6638299961102
64.210079945245
64.7491128264493
65.2820807382843
65.8099718012882
66.3336392817267
66.8538341341549
67.3712210123232
67.8863955892402
68.3998993323055
68.9122356348348
69.4238796514625
69.9352907445933
70.4469206275779
70.9592281480111
71.4726880525256
71.9878019248697
72.5051104706651
73.0252066401941
73.5487520247669
74.0764923694282
74.6092830173747
75.1481078920209
75.6941078940755
76.2486246851985
76.8132422786887
77.3898397993548
77.9806669956316
78.5884305057901
79.2164170548079
79.8686411186343
80.5500552520162
81.2668238041473
82.0267066693063
82.8395948103612
83.7182756720374
84.6795651931947
85.7460095868164
86.9485525481615
88.3308588671277
89.956644603461
91.9223943878595
94.3796262400975
97.5667939002015
101.798212055581
107.111686041972
113.138990198287
119.60404953668
126.330180188776
133.193205496807
140.08007934387
146.849537505154
153.342867256554
159.447459454719
165.102658350214
170.300032586332
175.109779742846
179.70971281361
184.258239875986
188.817245632247
193.324210913438
197.513837688171
200.712207572942
201.739274258304
199.332878998874
192.180237518387
179.009192394391
159.327186683865
135.043611053714
111.100384408824
91.019962365516
76.1188852537258
63.4215535833415
48.9053348592507
29.7024468169545
6.97965417953341
-15.9881017045642
-34.6852487022239
-47.3001426660023
-54.2451646856218
-56.6938079861696
-55.8815138577753
-52.9953066496877
-49.1249468126461
-44.9053175246112
-40.5972235947659
-36.2675578337475
-31.8657099221661
-27.2532089083928
-22.2763614245175
-16.8738448257106
-11.0551740529297
-4.8796282027438
1.5464817106146
8.07819672415317
14.5845055641842
20.9570079462849
27.0774245412815
32.7823158151775
37.8272603990039
41.9026258715937
45.0259643103717
47.4567993997301
49.4107850121516
51.0310051121381
52.410615542008
53.6118728579957
54.6777663250308
55.6388954960484
56.5176214456668
57.3306578641918
58.0907372492016
58.8077180801667
59.4893424411898
60.1417656125505
60.7699358127744
61.3778654860869
61.9688396884336
62.5455669954927
63.1102962275825
63.6649089188345
64.2109889566285
64.7498771916602
65.2827204432787
65.8105034241887
66.334076223425
66.854187407778
67.3714991982461
67.8866055567216
68.4000460955063
68.9123227006317
69.4239090086446
69.9352630387899
70.4468352028742
70.9590830690979
71.4724798030057
71.9875256002021
72.5047591887604
73.0247719271202
73.5482229850226
74.0758560196506
74.6085226874879
75.1472034118874
75.6930344507129
76.2473520023853
76.8117326752433
77.3880469641621
77.9785326186626
78.5858816066063
79.2133604424599
79.864957510747
80.5455890839116
81.26137027323
82.0199909253069
82.831240812169
83.7077566175576
84.6661229397724
85.7285171228617
86.925266499956
88.2989452140746
89.9111867057091
91.8541452915503
94.2693794557595
97.3710009610617
101.420497124525
106.441886675752
112.129307239737
118.23658274087
124.598604752215
131.096184492164
137.620883890905
144.042063438027
150.214837069915
156.032376703918
161.435107595501
166.41274779688
171.026091773793
175.428221888367
179.758208693374
184.068390480487
188.292802408358
192.172604763373
195.076073949412
195.915794562387
193.505344426023
186.609415646972
174.052702863628
155.415599998287
132.490536719066
109.778326452402
90.556334194597
76.0248725976537
63.5196942461474
49.3725026372433
30.9910305430276
9.44096414565067
-12.2370808091213
-29.9353649420684
-41.9575967597847
-48.6515744385079
-51.0995649306557
-50.4619619670804
-47.8526416663676
-44.2757447820591
-40.3258382502368
-36.2566354382971
-32.1381715156575
-27.9288350181366
-23.5081259388563
-18.744598313133
-13.5859194333921
-8.04356667884395
-2.17551071974858
3.91763011848315
10.1033634476338
16.2605314050049
22.2855728382809
28.0654640969252
33.4481464742419
38.2165336725185
42.1136904247749
45.1475867387986
47.532876573049
49.4616985871423
51.0668353520641
52.4367936944867
53.6315545132046
54.6928991986602
55.6507421209301
56.5270320967095
57.338224482937
58.096882532951
58.8127515787273
59.4934944417494
60.1452111761641
60.7728090479639
61.3802714623582
61.9708606105088
62.5472685784783
63.1117307569533
63.6661189646677
64.2120085018884
64.7507345261322
65.2834380054977
65.8110998725256
66.334566529886
66.8545839181164
67.3718114541417
67.8868412679532
68.4002108207922
68.9124204414445
69.4239419367857
69.9352319664856
70.446739315106
70.9589202457221
71.4722460515136
71.9872154873489
72.504365021118
73.0242842711072
73.5476295605024
74.0751422227821
74.6076698371789
75.1461890017994
75.6918306405578
76.2459249080913
76.8100400250749
77.3860369004937
77.9761398092924
78.5830244196517
79.2099345926011
79.8608297214624
80.5405855642131
81.2552624678904
82.0124720467894
82.8218918307483
83.6959911957847
84.6510991787588
85.7089863472923
86.8993045179449
88.2634403336059
89.8607902417902
91.7789535883722
94.1494088574589
97.1631691138143
101.036719530944
105.783305169139
111.14911700978
116.915862630899
122.930150676677
129.078210694029
135.256485720707
141.34419194898
147.208951660545
152.749708575681
157.908160169986
162.672155358793
167.093529217158
171.303141881263
175.422032313976
179.493314669996
183.447988611561
187.034312869629
189.660654831624
190.325096410607
187.914340292545
181.267960333892
169.3016264354
151.66038528155
130.022851226218
108.483531247146
90.0855912169806
75.9247071010211
63.6235781171264
49.8460389045152
32.2532069968631
11.8199111629434
-8.63645357638312
-25.3833533646216
-36.8363298951661
-43.2862818367946
-45.7299598228186
-45.2553773758357
-42.9059442826606
-39.6067700662886
-35.9141964455052
-32.0743054254594
-28.1598380708125
-24.1378482664467
-19.9045317371793
-15.3484203386243
-10.4256817570199
-5.1497180888315
0.422944710598718
6.19732137425293
12.0522138020803
17.8756112568423
23.568997329924
29.0249570549
34.1028244226538
38.6108252725981
42.3359291123795
45.2787891261929
47.6160098040934
49.5177154559754
51.1064113734654
52.4657790323619
53.6533822420479
54.7097014358471
55.6639066150027
56.5374962822062
57.3466423716614
58.1037219136469
58.8183553512845
59.4981180761533
60.1490489306503
60.7760099310543
61.3829521632267
61.9731125975942
62.5491649086384
63.1133296631874
63.6674677629375
64.213145098911
64.7516903476356
65.2842381069485
65.8117649757076
66.3351133691638
66.8550262067342
67.3721598173986
67.8871042499886
68.4003946070949
68.9125294988534
69.4239786773904
69.9351973100762
70.4466323485222
70.9587386090091
71.4719853052475
71.9868695746692
72.5039254360214
73.0237404859427
73.5469679318399
74.0743464060933
74.6067190661969
75.1450581724379
75.690488817389
76.244334347152
76.8081536940805
77.3837970296667
77.973473747467
78.5798413698561
79.2061186884507
79.8562329227005
80.5350150458353
81.2484647376491
82.0041071429684
82.8114959997258
83.6829165952158
84.634417668439
85.6873251942068
86.8705570344348
88.2242200017411
89.8053336045639
91.6967640815592
94.0199152405782
96.944122902804
100.647674532347
105.135491676433
110.197114770205
115.639989924301
121.32241908447
127.136393602222
132.983443766036
138.751938328255
144.320831543788
149.594769174177
154.51687787516
159.073157231342
163.306966255859
167.32921915238
171.244200235336
175.086176902336
178.783511500352
182.092081359802
184.458286661375
184.959116889109
182.551707330863
176.147862509601
164.748560695425
148.055837565973
127.637906566504
107.215473422741
89.6085751856598
75.8187957080385
63.7327976146769
50.3250821403682
33.4893953994865
14.1190023148825
-5.18074756355209
-21.022082312392
-31.9286076967796
-38.1414168469471
-40.5772340310136
-40.2543931156779
-38.1486015396046
-35.1120196749648
-31.6647946392977
-28.0449504579154
-24.3275144139653
-20.4878228946743
-16.4375263169899
-12.0830709122685
-7.38860834159544
-2.36939821293983
2.91958784100209
8.38888723611469
13.9275508492235
19.4320695193659
24.8091159074298
29.9571513830138
34.7467682651338
39.009406434623
42.568541045489
45.4193291578562
47.7062264204673
49.5789457861581
51.1498547872634
52.4976824408896
53.6774509908494
54.7282525862136
55.6784550586347
56.5490688731089
57.3559571053588
58.1112933875341
58.8245611376595
59.5032399703986
60.1533012486905
60.7795573460375
61.3859235257407
61.9756091542083
62.5512674475938
63.1151026794021
63.6689635484237
64.214405713512
64.7527504851472
65.2851256306509
65.8125028242829
66.3357201249387
66.8555169998965
67.3725464649744
67.8873961409102
68.4005986341062
68.912650558
69.4240194932434
69.9351588664541
70.4465136797144
70.9585370435349
71.4716959809178
71.9864857257878
72.5034377261803
73.0231372072316
73.5462340199641
74.0734636309561
74.6056645094072
75.143804011936
75.6890008366781
76.2425706865692
76.8060623317724
77.3813139216576
77.9705185820746
78.5763136591465
79.20189046853
79.8511406232693
80.5288459630472
81.2409393032902
81.9948509188928
82.7999987930708
83.6684671607955
84.6159993378516
85.6634392594964
86.8389137185876
88.1811630072703
89.7447060656389
91.607545995079
93.8811318577299
96.7146575973146
100.254105565372
104.498053080281
109.272068737798
114.407139683839
119.773090804954
125.267932334718
130.798426320901
136.261450878312
141.546242873943
146.56303127989
151.256497871595
155.610846811318
159.661471144853
163.501408200491
167.219431630597
170.841378462682
174.293363602965
177.339291944168
179.461596002955
179.810090800422
177.409572015902
171.241387237476
160.386368646185
144.596469991626
125.333173890372
105.973718717913
89.1261582027457
75.7075424720919
63.8469478191689
50.8087635718289
34.6999848394505
16.3406678629065
-1.86465850694087
-16.8446201417476
-27.2269123054469
-33.2093434188173
-35.6338658795823
-35.4518855045863
-33.5742225598014
-30.7857000393849
-27.5722375639358
-24.1634801956126
-20.6363369016952
-16.9740009422204
-13.1023762731771
-8.94394773716532
-4.47031774053884
0.301491160841726
5.31814711157902
10.4955596583094
15.7320958918315
20.9321576199946
26.0076947021467
30.8632288811989
35.380348720849