/*--------------------------------*- C++ -*----------------------------------*\
| =========                 |                                                 |
| \\      /  F ield         | OpenFOAM: The Open Source CFD Toolbox           |
|  \\    /   O peration     | Version:  3.0.0                                 |
|   \\  /    A nd           | Web:      www.OpenFOAM.org                      |
|    \\/     M anipulation  |                                                 |
\*---------------------------------------------------------------------------*/
FoamFile
{
    version     2.0;
    format      ascii;
    class       volSymmTensorField;
    location    "0";
    object      tau;
}
// * * * * * * * * * * * * * * * * * * * * * * * * * * * * * * * * * * * * * //

dimensions      [0 2 -2 0 0 0 0];

internalField   nonuniform List<symmTensor> 
15600
(
( 0.00440725563994 -4.54245861774e-05 0.0 -2.88065127966e-05 0.0 0.00280384176806  ) 
( 0.00449317392929 -0.000192727706772 0.0 -4.38651028115e-05 0.0 0.00292914082163  ) 
( 0.0013122582878 -0.000190953455852 0.0 9.37772791457e-07 0.0 0.00102973171857  ) 
( 0.000419731796543 -0.000136985410498 0.0 3.50188760362e-05 0.0 0.000385896151812  ) 
( 0.000595038351962 -0.000310752287129 0.0 0.000159169504271 0.0 0.000540003578396  ) 
( 0.000880480466597 -0.000578960620363 0.0 0.000379584137217 0.0 0.00084328004117  ) 
( 0.000760168533916 -0.000560762884264 0.0 0.00041313496819 0.0 0.000786643964671  ) 
( 0.000439506225028 -0.000359002062736 0.0 0.000292904843443 0.0 0.000482327200844  ) 
( 0.000409019678461 -0.000346059988299 0.0 0.000292835602823 0.0 0.000489321252002  ) 
( 0.000389673866397 -0.000330097039643 0.0 0.000279770047317 0.0 0.000475151841765  ) 
( 0.000251028195728 -0.000211163885939 0.0 0.000177601198724 0.0 0.00030975022883  ) 
( 0.000218353502416 -0.0001777726472 0.0 0.000144612657825 0.0 0.000265274074042  ) 
( 0.000300391965966 -0.000239206901403 0.0 0.000191552697003 0.0 0.000360912868648  ) 
( 0.000310597596535 -0.000243044816788 0.0 0.000191133593774 0.0 0.000358492618843  ) 
( 0.000278788191618 -0.000215824962783 0.0 0.000166535288504 0.0 0.000314460450799  ) 
( 0.000229321243031 -0.000178525699069 0.0 0.000136977156377 0.0 0.000254674995376  ) 
( 0.000257544653308 -0.000198863800594 0.0 0.000149825439841 0.0 0.000288906488334  ) 
( 0.000509326330113 -0.000379109897202 0.0 0.000277563682525 0.0 0.000567637075673  ) 
( 0.000579543633987 -0.000414119591269 0.0 0.000287798145163 0.0 0.000649194497517  ) 
( 0.00094572810451 -0.000624883090357 0.0 0.000406402758675 0.0 0.00108437449784  ) 
( 0.00111207886264 -0.000667861300351 0.0 0.000393374591487 0.0 0.00129934166535  ) 
( 0.00148212027917 -0.000783062252816 0.0 0.000404251017152 0.0 0.00167471349039  ) 
( 0.00176067918689 -0.000791422858623 0.0 0.000346180433353 0.0 0.00196580055575  ) 
( 0.00212948796011 -0.000784246667909 0.0 0.000281309348129 0.0 0.00228481026537  ) 
( 0.00230367273146 -0.000658088346521 0.0 0.000179871887152 0.0 0.00240401012589  ) 
( 0.00267648103245 -0.000527968621856 0.0 0.00010114733968 0.0 0.00270851057564  ) 
( 0.0026955449976 -0.000315472538646 0.0 2.59477743184e-05 0.0 0.00272766058684  ) 
( 0.00287889910139 -7.06361246191e-05 0.0 -1.05782996498e-05 0.0 0.00286752579968  ) 
( 0.00310073448885 8.70133313785e-06 0.0 -2.23729244622e-05 0.0 0.0028268055501  ) 
( 0.00356661362819 1.52421044775e-05 0.0 -3.59254080619e-05 0.0 0.00331171665703  ) 
( 0.00372865609198 1.32758175781e-05 0.0 -5.29808297138e-05 0.0 0.00353309442069  ) 
( 0.00395651760641 1.43203050241e-05 0.0 -6.2256764293e-05 0.0 0.00388730376164  ) 
( 0.00415516638257 1.63272682876e-05 0.0 -7.18757568474e-05 0.0 0.00429971744281  ) 
( 0.00445876460374 1.6854657666e-05 0.0 -7.48509224528e-05 0.0 0.00493017757097  ) 
( 0.00465725203487 1.67400224464e-05 0.0 -7.59302024843e-05 0.0 0.0053420164018  ) 
( 0.00468574286581 1.31944630586e-05 0.0 -7.91400146367e-05 0.0 0.00558954286322  ) 
( 0.00471983595793 1.04332694626e-05 0.0 -8.26851392246e-05 0.0 0.00559970958906  ) 
( 0.00483221036298 9.62772190894e-06 0.0 -7.13212122907e-05 0.0 0.00577506258516  ) 
( 0.00495080338003 8.6332044208e-06 0.0 -7.68701189288e-05 0.0 0.00598817763847  ) 
( 0.00520786801654 7.97149776019e-06 0.0 -6.86784802418e-05 0.0 0.00617431134205  ) 
( 0.00507889921027 7.26868035376e-06 0.0 -6.12118611249e-05 0.0 0.00614347028154  ) 
( 0.0053132865154 5.69430173334e-06 0.0 -5.79120632142e-05 0.0 0.00657796285897  ) 
( 0.00507052080843 2.70627062753e-06 0.0 -5.19543441842e-05 0.0 0.00632366686089  ) 
( 0.00520576854461 1.76536414361e-06 0.0 -5.06173109338e-05 0.0 0.00646485017157  ) 
( 0.00518219960825 7.37984013058e-07 0.0 -4.68697263976e-05 0.0 0.00636747111136  ) 
( 0.00519658981569 -2.88341764258e-06 0.0 -3.49148521653e-05 0.0 0.00641984100454  ) 
( 0.00545198389338 -3.2070777273e-06 0.0 -3.35968458601e-05 0.0 0.00667886601277  ) 
( 0.0058309078564 -2.9580445794e-06 0.0 -2.33988199213e-05 0.0 0.00707756054183  ) 
( 0.00522974824617 -5.5241762497e-06 0.0 -1.76612122289e-05 0.0 0.00637683685697  ) 
( 0.00513257949058 -6.29063055929e-06 0.0 -2.42648231453e-05 0.0 0.00630944568876  ) 
( 0.00531133867358 -6.93117020487e-06 0.0 -1.6111018189e-05 0.0 0.00650631106168  ) 
( 0.00549805023311 -9.84915322642e-06 0.0 -9.743540877e-06 0.0 0.00674451888961  ) 
( 0.00485909522119 -9.81117471293e-06 0.0 -1.37781212596e-05 0.0 0.00600852179064  ) 
( 0.00487237176422 -1.1141816112e-05 0.0 -1.01438060991e-05 0.0 0.00583560378171  ) 
( 0.00493344359149 -1.20955683896e-05 0.0 -6.40567254866e-06 0.0 0.00577899368778  ) 
( 0.0050494472561 -1.41856836722e-05 0.0 -2.11910346827e-06 0.0 0.00594168893467  ) 
( 0.00530368217492 -1.99443795867e-05 0.0 2.65255497591e-06 0.0 0.00617166642755  ) 
( 0.00488626132151 -1.5544646042e-05 0.0 2.2225031313e-07 0.0 0.00571640638962  ) 
( 0.0051006354378 -1.96634975997e-05 0.0 4.87330320758e-06 0.0 0.00596634984898  ) 
( 0.00502131969681 -2.26704816362e-05 0.0 6.3554195051e-06 0.0 0.00588299451969  ) 
( 0.00497581481819 -2.34237429077e-05 0.0 6.82527524332e-06 0.0 0.00576153854845  ) 
( 0.0052995457711 -3.2178532683e-05 0.0 1.70635690963e-05 0.0 0.00606266668157  ) 
( 0.00490239110236 -2.89647639932e-05 0.0 8.45150467545e-06 0.0 0.00564212924108  ) 
( 0.00428556874084 -2.16175430807e-05 0.0 5.33897561634e-07 0.0 0.00499115153443  ) 
( 0.00479169556099 -3.12141622359e-05 0.0 5.79999708081e-06 0.0 0.00532653296121  ) 
( 0.00538694599246 -4.47895466949e-05 0.0 2.08898482837e-05 0.0 0.00583275464658  ) 
( 0.00536895194806 -4.87907578301e-05 0.0 2.05802405266e-05 0.0 0.00577339848851  ) 
( 0.00543349866773 -5.84908717751e-05 0.0 2.98594474794e-05 0.0 0.00579595718453  ) 
( 0.00379056322135 -2.37363200109e-05 0.0 -7.69006424477e-06 0.0 0.00433287594139  ) 
( 0.00427245466606 -3.38765798039e-05 0.0 -1.92371887837e-06 0.0 0.00477436540584  ) 
( 0.00501401875068 -6.01974826338e-05 0.0 2.18393611654e-05 0.0 0.00535725986781  ) 
( 0.00499610572977 -6.52286451413e-05 0.0 2.28682180318e-05 0.0 0.00519720142764  ) 
( 0.00347342302328 -2.54286526137e-05 0.0 -1.14030107015e-05 0.0 0.00385431497915  ) 
( 0.00430593032836 -4.39933240177e-05 0.0 6.83924806984e-07 0.0 0.00448307675253  ) 
( 0.00490728845015 -6.83047969798e-05 0.0 2.37266600269e-05 0.0 0.00490468426442  ) 
( 0.00328828523463 -2.49096824977e-05 0.0 -1.31808960282e-05 0.0 0.00359046934991  ) 
( 0.00431255174105 -5.17903775988e-05 0.0 3.77798167535e-06 0.0 0.00443947741275  ) 
( 0.00441769247519 -6.14201468961e-05 0.0 1.15988728351e-05 0.0 0.00445735224654  ) 
( 0.00378491030319 -4.3482671149e-05 0.0 -3.84291463328e-06 0.0 0.00399518924188  ) 
( 0.00438546151679 -7.12198982048e-05 0.0 2.40720436318e-05 0.0 0.00435554222789  ) 
( 0.00393631503666 -5.2041950292e-05 0.0 1.80210404925e-06 0.0 0.00404556175292  ) 
( 0.00290341460013 -2.47635273745e-05 0.0 -1.29983831048e-05 0.0 0.00314252836722  ) 
( 0.00414872201923 -6.42301497971e-05 0.0 1.57975513282e-05 0.0 0.0041132680957  ) 
( 0.00391602430896 -5.89662922461e-05 0.0 1.17545076639e-05 0.0 0.00396670487039  ) 
( 0.00328356227456 -4.1506883929e-05 0.0 -1.03587099665e-06 0.0 0.00353053586609  ) 
( 0.00303991912252 -3.6303020426e-05 0.0 -2.30492871138e-06 0.0 0.00334763363827  ) 
( 0.00309061091192 -4.08146254361e-05 0.0 2.74619914968e-06 0.0 0.00345032263424  ) 
( 0.00351258054096 -6.48225815521e-05 0.0 2.51665742381e-05 0.0 0.00384827703205  ) 
( 0.00258774370262 -3.17132283234e-05 0.0 3.38682310187e-06 0.0 0.00314994114091  ) 
( 0.00295180362085 -4.67611213397e-05 0.0 1.92132748896e-05 0.0 0.00367609332167  ) 
( 0.00227922680626 -2.74938868415e-05 0.0 6.77536019667e-06 0.0 0.00318883746478  ) 
( 0.00219692042321 -2.46554526523e-05 0.0 1.10805344758e-05 0.0 0.00332925435566  ) 
( 0.00255175652101 2.20835034892e-05 0.0 2.34123207888e-05 0.0 0.00451580118077  ) 
( 0.00273557582624 0.000270253931896 0.0 5.35397208191e-05 0.0 0.0053967402527  ) 
( 0.00296024954131 0.0005471535417 0.0 0.000130581210193 0.0 0.0060086683014  ) 
( 0.00298043314891 0.000816932482956 0.0 0.000252036237443 0.0 0.00632586139449  ) 
( 0.0028829917074 0.00103225622946 0.0 0.000394400266449 0.0 0.00644272668521  ) 
( 0.0026963123223 0.00118769206743 0.0 0.000542459740951 0.0 0.00638284521527  ) 
( 0.00242813672892 0.00126097135877 0.0 0.000665399637729 0.0 0.00614066542398  ) 
( 0.0019849436228 0.00117961683727 0.0 0.000699028765124 0.0 0.00536190525237  ) 
( 0.00186620575495 0.00122156459075 0.0 0.000788809745863 0.0 0.00511107343723  ) 
( 0.00164538835238 0.00115789131271 0.0 0.000792403378248 0.0 0.00451652600438  ) 
( 0.0011307210728 0.000847629000232 0.0 0.000595522542314 0.0 0.00321227793727  ) 
( 0.000692135496426 0.000548310562921 0.0 0.00038362810949 0.0 0.00204994897571  ) 
( 0.000546234050231 0.000447658981872 0.0 0.0003085630249 0.0 0.00165998992626  ) 
( 0.000652016218446 0.000528586211482 0.0 0.000363109864976 0.0 0.00204699410394  ) 
( 0.0007004247604 0.00057207703488 0.0 0.000394913186802 0.0 0.00232016585361  ) 
( 0.000624248688126 0.000532565576335 0.0 0.000360721442692 0.0 0.00222017638364  ) 
( 0.000400905959011 0.00037550279205 0.0 0.000240529170329 0.0 0.00150542260423  ) 
( 0.000420747904047 0.000416405117569 0.0 0.00026957692086 0.0 0.00166893737056  ) 
( 0.000597616075735 0.000611300353708 0.0 0.000380922178933 0.0 0.00246209095612  ) 
( 0.000619987732973 0.00065558991435 0.0 0.000390349287761 0.0 0.00233973297575  ) 
( 0.000643711554056 0.000669668687483 0.0 0.000359581365585 0.0 0.00206365652208  ) 
( 0.00102292430267 0.000970494102133 0.0 0.000402563946086 0.0 0.00281628182389  ) 
( 0.00134875257079 0.00110991228263 0.0 0.000356751561706 0.0 0.00259151977977  ) 
( 0.00105008396233 0.000656709341688 0.0 0.000105698729703 0.0 0.00119980516531  ) 
( 0.00084283459783 0.000305553847582 0.0 -2.7123896953e-05 0.0 0.000492188240512  ) 
( 0.00129946155255 0.000194358760428 0.0 -7.90171837732e-05 0.0 0.000577511973957  ) 
( 0.00193900069404 5.93179561131e-05 0.0 -3.94711754944e-05 0.0 0.00120113862195  ) 
( 0.00280981984715 -2.99550221941e-05 0.0 -2.45775604801e-05 0.0 0.0017403501927  ) 
( 0.0207487929102 -0.000441519004779 0.0 -0.000991017619855 0.0 0.0109908483906  ) 
( 0.0228161096599 -0.0010976595896 0.0 -0.00137193714117 0.0 0.0122924120184  ) 
( 0.0139484240012 -0.00199171054556 0.0 -0.000488311505178 0.0 0.00868995682672  ) 
( 0.00694369322353 -0.00206466629914 0.0 0.000421193038074 0.0 0.00642342654604  ) 
( 0.00538752292299 -0.00270344296207 0.0 0.00144947950791 0.0 0.00629965520116  ) 
( 0.00465447826967 -0.00300151150395 0.0 0.00217251890501 0.0 0.0064766601795  ) 
( 0.004505841686 -0.00326497014298 0.0 0.00256283395791 0.0 0.00643573580375  ) 
( 0.00385016695389 -0.00308997863117 0.0 0.00259966846861 0.0 0.0054231393134  ) 
( 0.00339069772555 -0.00282314758581 0.0 0.00244106693466 0.0 0.00487323833452  ) 
( 0.00314783614757 -0.00263351897956 0.0 0.0022703600355 0.0 0.0043958794951  ) 
( 0.0028050755204 -0.00232701838828 0.0 0.00198082031481 0.0 0.00378375255946  ) 
( 0.00267831596929 -0.00215900256997 0.0 0.00177994563647 0.0 0.0034643616851  ) 
( 0.00264867371448 -0.00210355843951 0.0 0.0017040418496 0.0 0.00327235425081  ) 
( 0.00267356124186 -0.00208341103213 0.0 0.00165276142256 0.0 0.00310862224789  ) 
( 0.00278034766069 -0.00212603827162 0.0 0.00165553459695 0.0 0.00308386898943  ) 
( 0.00291725422413 -0.00222429415604 0.0 0.00172158972455 0.0 0.00308579275863  ) 
( 0.00307059066396 -0.00232160090466 0.0 0.00177737009579 0.0 0.00319343446437  ) 
( 0.00348642823381 -0.00256404425804 0.0 0.00191311288964 0.0 0.00361343360258  ) 
( 0.00388632535147 -0.00271997414311 0.0 0.00194436264351 0.0 0.00404425877911  ) 
( 0.00435688867164 -0.00285427817161 0.0 0.00191467780093 0.0 0.00462090467848  ) 
( 0.00491951213704 -0.0029745728203 0.0 0.00185275611484 0.0 0.00529303405722  ) 
( 0.0057020184118 -0.0029926799237 0.0 0.00164116704157 0.0 0.00611076342033  ) 
( 0.00648904964331 -0.00288922858737 0.0 0.00137544565535 0.0 0.00684824088285  ) 
( 0.00739217573098 -0.00269688098227 0.0 0.00109333043461 0.0 0.00757112990747  ) 
( 0.00829769868432 -0.00232651150706 0.0 0.000788485839281 0.0 0.00828633507043  ) 
( 0.00920550496312 -0.00180065035457 0.0 0.000501938737355 0.0 0.00898182815613  ) 
( 0.00988021739657 -0.00108155314617 0.0 0.000293941317801 0.0 0.00945239033284  ) 
( 0.0106494661992 -0.000279010038385 0.0 0.000193325840632 0.0 0.00985478210867  ) 
( 0.0119114009872 -3.78644715107e-06 0.0 0.00017602420499 0.0 0.0106646720995  ) 
( 0.0131487493528 1.71163781998e-05 0.0 0.000165762495922 0.0 0.0122712915832  ) 
( 0.0140299353339 7.30177572842e-06 0.0 0.000156547787933 0.0 0.0137232258946  ) 
( 0.014912150992 1.20090178408e-05 0.0 0.000128831011552 0.0 0.0152669522906  ) 
( 0.0152900342767 9.4319137094e-06 0.0 0.000124429919305 0.0 0.0165676551408  ) 
( 0.0155783616816 -1.98503736492e-05 0.0 0.000115124085474 0.0 0.0180071605239  ) 
( 0.0160295747758 -3.26568758207e-05 0.0 9.49321549155e-05 0.0 0.0191234404305  ) 
( 0.0162918726022 -6.00134423152e-05 0.0 8.38037421356e-05 0.0 0.0201800587632  ) 
( 0.0169236732413 -8.25639639124e-05 0.0 7.49291596196e-05 0.0 0.0209629834328  ) 
( 0.0175922176446 -7.88910937106e-05 0.0 5.76859751125e-05 0.0 0.0217542073794  ) 
( 0.0179687478026 -9.35297735576e-05 0.0 5.58733370262e-05 0.0 0.0224965451042  ) 
( 0.0183592729828 -9.91291533833e-05 0.0 7.24260189682e-05 0.0 0.0225218100381  ) 
( 0.0187161480525 -8.85919625423e-05 0.0 4.36928779347e-05 0.0 0.0231452999024  ) 
( 0.0184891198886 -0.000115589806026 0.0 5.32076086872e-05 0.0 0.0233521324903  ) 
( 0.0188619825865 -0.000126541211914 0.0 3.02319795573e-05 0.0 0.0236644938446  ) 
( 0.0189404652933 -0.000139245508284 0.0 4.35441270142e-05 0.0 0.0235989376945  ) 
( 0.0194892160486 -0.000140834156598 0.0 2.39054790936e-05 0.0 0.0238435821961  ) 
( 0.0196868221844 -0.000151214473518 0.0 2.58412547148e-05 0.0 0.024054144385  ) 
( 0.0200072600018 -0.000177248141942 0.0 4.3552483985e-05 0.0 0.0241396701373  ) 
( 0.0204098053857 -0.00014437553221 0.0 3.47134698735e-05 0.0 0.024346544844  ) 
( 0.0203135116666 -0.00014554428721 0.0 2.49496965828e-05 0.0 0.0240959164843  ) 
( 0.0200300684824 -0.000166226745151 0.0 2.96575113488e-05 0.0 0.0238812566609  ) 
( 0.0198001563647 -0.000167208635304 0.0 2.84638737604e-05 0.0 0.0234489729583  ) 
( 0.019846236769 -0.000167122203459 0.0 2.05428595641e-05 0.0 0.0233999665921  ) 
( 0.0197397544938 -0.000188502103383 0.0 8.86557929115e-06 0.0 0.0230980423753  ) 
( 0.019847676743 -0.000199535019724 0.0 1.46054440827e-05 0.0 0.0224969327574  ) 
( 0.0199440823045 -0.000191203591468 0.0 2.45120741285e-05 0.0 0.0220635335445  ) 
( 0.0196927729195 -0.000189872269373 0.0 2.49568813428e-05 0.0 0.0218500273657  ) 
( 0.0196825692386 -0.000212660649982 0.0 2.48231415958e-05 0.0 0.021568063238  ) 
( 0.0193925928772 -0.000193605954725 0.0 1.92655434478e-05 0.0 0.0211970166495  ) 
( 0.019036913371 -0.000200135987868 0.0 1.55354459365e-05 0.0 0.020894473326  ) 
( 0.0189449577441 -0.000217493770649 0.0 2.03804153102e-05 0.0 0.0206129519715  ) 
( 0.0188424841754 -0.000218884910185 0.0 1.5858553515e-05 0.0 0.0203285633054  ) 
( 0.0184708171585 -0.000218607232721 0.0 1.12663627634e-05 0.0 0.0200587798882  ) 
( 0.0182147800999 -0.000226287552311 0.0 4.1556382285e-06 0.0 0.0195658929335  ) 
( 0.0179405031826 -0.000232020699269 0.0 8.72474471972e-06 0.0 0.0190107406271  ) 
( 0.0179587044521 -0.000239851777517 0.0 7.06436325876e-06 0.0 0.0185669178347  ) 
( 0.0177059491416 -0.000237877633016 0.0 9.53044870366e-06 0.0 0.0182681232955  ) 
( 0.0175517169544 -0.000245657237532 0.0 5.79969690914e-06 0.0 0.0179890912525  ) 
( 0.0172120128496 -0.000247228362619 0.0 -2.22623244564e-06 0.0 0.017769064345  ) 
( 0.0168548117968 -0.000249649287717 0.0 -8.59786587574e-06 0.0 0.0172571992917  ) 
( 0.0163383259859 -0.000248244607277 0.0 -3.28188581989e-06 0.0 0.0167459377326  ) 
( 0.0160006714993 -0.000255923989398 0.0 8.339248793e-07 0.0 0.016308891963  ) 
( 0.0159823529179 -0.000260395049342 0.0 -5.14828113503e-06 0.0 0.0159163667518  ) 
( 0.0158541587194 -0.000265242142876 0.0 3.93032285484e-06 0.0 0.0155452075065  ) 
( 0.0155837993544 -0.000258075805709 0.0 1.79376728127e-05 0.0 0.0150890348486  ) 
( 0.0154479481399 -0.000258682601094 0.0 1.23862394155e-05 0.0 0.0149316445104  ) 
( 0.0152456210922 -0.00025996257793 0.0 1.29622660876e-05 0.0 0.0146355166608  ) 
( 0.0147681590573 -0.000263147257763 0.0 2.74814641493e-05 0.0 0.0142553845428  ) 
( 0.0146908119912 -0.000267154763481 0.0 2.23079463338e-05 0.0 0.0140727427139  ) 
( 0.0143080246253 -0.000269959271789 0.0 3.23004553849e-05 0.0 0.0137902564287  ) 
( 0.0141898944077 -0.000268851100602 0.0 3.08147765049e-05 0.0 0.0135726300252  ) 
( 0.0139672499725 -0.000276233245393 0.0 4.67677711274e-05 0.0 0.0132779693075  ) 
( 0.0139531407743 -0.000271206327715 0.0 3.89465063605e-05 0.0 0.0131478506248  ) 
( 0.0135468154054 -0.000257126386484 0.0 4.22326514909e-05 0.0 0.0129083435244  ) 
( 0.0130042385125 -0.000253277766532 0.0 5.24615881226e-05 0.0 0.0125847374912  ) 
( 0.0125239539935 -0.000255024299323 0.0 6.02288085985e-05 0.0 0.0123472256155  ) 
( 0.0121245761081 -0.00025174418181 0.0 6.7203387869e-05 0.0 0.0121710513025  ) 
( 0.0116280828472 -0.000244837022195 0.0 7.65002128687e-05 0.0 0.0120072338383  ) 
( 0.0112108121322 -0.000245602026901 0.0 8.39616518643e-05 0.0 0.0119062961799  ) 
( 0.0107673498017 -0.000230611532815 0.0 9.42305274357e-05 0.0 0.0119842914029  ) 
( 0.0100651563354 -0.000220495097371 0.0 0.00011451133622 0.0 0.0120155541177  ) 
( 0.00937928147208 -0.000215734090619 0.0 0.00012580657029 0.0 0.0121849499095  ) 
( 0.0087102884746 -0.000197346884299 0.0 0.000148764613365 0.0 0.0126112269768  ) 
( 0.00835608074378 7.21119952751e-06 0.0 0.000185076064884 0.0 0.0145244396708  ) 
( 0.00863244942446 0.000725719655713 0.0 0.000264855479553 0.0 0.0171708764709  ) 
( 0.00925457698968 0.00160061318644 0.0 0.000475995125612 0.0 0.0194554651285  ) 
( 0.00929351140408 0.00242638307593 0.0 0.000837967153986 0.0 0.0206413581556  ) 
( 0.00921963374643 0.00321282369351 0.0 0.00129975608362 0.0 0.0215773344059  ) 
( 0.00885052135073 0.00384814608844 0.0 0.00181739931611 0.0 0.0221250569206  ) 
( 0.00839216484152 0.00433032615011 0.0 0.00233252703075 0.0 0.0223791753809  ) 
( 0.00800390286832 0.004795989396 0.0 0.00292167526841 0.0 0.0221692354027  ) 
( 0.00775283717844 0.00505441222532 0.0 0.00328604639553 0.0 0.0219791716191  ) 
( 0.00733118521861 0.0051277182127 0.0 0.00352364108911 0.0 0.021323610324  ) 
( 0.00715077980292 0.00525702927783 0.0 0.00373000132231 0.0 0.0210652181047  ) 
( 0.0067172482379 0.00509143124604 0.0 0.00366609670918 0.0 0.0200317210184  ) 
( 0.00655930080444 0.00502652487952 0.0 0.00362157396789 0.0 0.0199504469793  ) 
( 0.00628126353952 0.004842838112 0.0 0.00346287526104 0.0 0.0198643221557  ) 
( 0.00607361811557 0.00478351306742 0.0 0.00345582941736 0.0 0.0200207066021  ) 
( 0.005805026371 0.00466979332367 0.0 0.00341151234695 0.0 0.0200955087014  ) 
( 0.00579386136535 0.00475798076207 0.0 0.00350845151825 0.0 0.0201881612204  ) 
( 0.00565665346982 0.00480185079519 0.0 0.00359476734913 0.0 0.020937299941  ) 
( 0.00611913281926 0.00525039105304 0.0 0.00387914696327 0.0 0.023048334758  ) 
( 0.00635466722868 0.0055607597854 0.0 0.00402341849055 0.0 0.0237076924604  ) 
( 0.00694351509927 0.00592245515601 0.0 0.00399895116345 0.0 0.0242002165187  ) 
( 0.00739739763662 0.00607745060661 0.0 0.0032583581043 0.0 0.0248313030532  ) 
( 0.00803755021856 0.00611506036797 0.0 0.00246600092458 0.0 0.0229870425104  ) 
( 0.0110385359153 0.00656617881307 0.0 0.00149065801295 0.0 0.0179045557359  ) 
( 0.015956627644 0.00539443585725 0.0 8.38217152131e-05 0.0 0.0114264312547  ) 
( 0.0197468829653 0.00297739671385 0.0 -0.000606573983651 0.0 0.00758220299839  ) 
( 0.015478252648 0.000586206719458 0.0 -0.000677360124313 0.0 0.00572861707049  ) 
( 0.0157560155574 -0.00019794926284 0.0 -0.000692462283253 0.0 0.00709007418211  ) 
( 0.0376104348081 0.000270959194639 0.0 -0.00660436471688 0.0 0.0126444418884  ) 
( 0.0396350404931 -0.000522978733872 0.0 -0.00844537941877 0.0 0.0140234088722  ) 
( 0.0301976171294 -0.0034217524874 0.0 -0.00486962725715 0.0 0.0119475029107  ) 
( 0.0152635159316 -0.00437803349084 0.0 -0.000389359155223 0.0 0.0115109698531  ) 
( 0.00975958917802 -0.00489244443065 0.0 0.0023120784631 0.0 0.012396916955  ) 
( 0.00837592738242 -0.00535866109792 0.0 0.00371715092635 0.0 0.0117957861795  ) 
( 0.00703962969027 -0.00507543599154 0.0 0.00403290162649 0.0 0.0105703750552  ) 
( 0.00628144732645 -0.00496711369825 0.0 0.00424208450808 0.0 0.00948350548552  ) 
( 0.00564823488991 -0.00461713378632 0.0 0.00408310388537 0.0 0.00875978273994  ) 
( 0.00535820582128 -0.00441550327743 0.0 0.00392191696472 0.0 0.00812069401875  ) 
( 0.00521961996596 -0.00424808973807 0.0 0.00369682496346 0.0 0.00745858287359  ) 
( 0.00528982347815 -0.00420920893815 0.0 0.00354690848497 0.0 0.00712289955041  ) 
( 0.0054544145071 -0.00427516380297 0.0 0.00352978497539 0.0 0.00684104497389  ) 
( 0.00570138600742 -0.00438913650038 0.0 0.00353953393676 0.0 0.00658695590991  ) 
( 0.00601785384663 -0.00455374085296 0.0 0.00359499640503 0.0 0.00648338240578  ) 
( 0.00640522972864 -0.00483414877637 0.0 0.00378207742298 0.0 0.00649829887654  ) 
( 0.0066384520697 -0.00496416588549 0.0 0.00381632505905 0.0 0.00653926114315  ) 
( 0.00717956265601 -0.00524297571757 0.0 0.00392751215749 0.0 0.00706931377885  ) 
( 0.00749983487702 -0.00522884444916 0.0 0.00374330505416 0.0 0.00753164763538  ) 
( 0.00803466463474 -0.00525470467811 0.0 0.00352081840698 0.0 0.00817934833088  ) 
( 0.00853595402539 -0.00517389194303 0.0 0.00321205848202 0.0 0.00895425092067  ) 
( 0.00930666389299 -0.00492682967978 0.0 0.00266972155501 0.0 0.0097789619032  ) 
( 0.0101522208937 -0.00458589228254 0.0 0.00213292820093 0.0 0.010525701428  ) 
( 0.0110906618359 -0.0041322983634 0.0 0.00160660934274 0.0 0.0112257508986  ) 
( 0.0120761277131 -0.00346942890885 0.0 0.00109162154912 0.0 0.0119441879615  ) 
( 0.0129741021335 -0.00261374062086 0.0 0.000663605773039 0.0 0.0125094567174  ) 
( 0.013861385303 -0.00162077335408 0.0 0.00037014148691 0.0 0.0130280486535  ) 
( 0.0150787190274 -0.00063193507903 0.0 0.000220323053705 0.0 0.0137195970135  ) 
( 0.0165949774994 -0.000364970003037 0.0 0.000110256557613 0.0 0.0152051216582  ) 
( 0.0176248660457 -0.000404771525618 0.0 -1.92593956141e-05 0.0 0.0172139629411  ) 
( 0.0183961830025 -0.000471206174101 0.0 -0.000140799174303 0.0 0.0191558165837  ) 
( 0.0189370366371 -0.000521942067199 0.0 -0.000235431125357 0.0 0.0209443799276  ) 
( 0.0193523020581 -0.000558681657855 0.0 -0.000324448485967 0.0 0.0226390710593  ) 
( 0.0196680793016 -0.00063882048948 0.0 -0.000408418216803 0.0 0.0244972425586  ) 
( 0.0200482895741 -0.000686170530621 0.0 -0.000496289055432 0.0 0.0258891886523  ) 
( 0.0203395395917 -0.000746413995773 0.0 -0.00056838065265 0.0 0.027303962852  ) 
( 0.0210455378372 -0.00079683406283 0.0 -0.000608470830834 0.0 0.0282908504732  ) 
( 0.0217111959162 -0.000777009840924 0.0 -0.000630440276438 0.0 0.0291196201434  ) 
( 0.0222733063446 -0.00079705134989 0.0 -0.000641379763203 0.0 0.0301114116514  ) 
( 0.0230442827718 -0.000765034769493 0.0 -0.000649344996608 0.0 0.0305401043099  ) 
( 0.0231948573306 -0.000727462813057 0.0 -0.000684254731507 0.0 0.0309833334351  ) 
( 0.0232702532784 -0.000753735197463 0.0 -0.000726048863052 0.0 0.031527437509  ) 
( 0.0235996643278 -0.000764255201818 0.0 -0.000752223382744 0.0 0.0316874560827  ) 
( 0.0240762180704 -0.000750031022465 0.0 -0.000771883174281 0.0 0.0320171258455  ) 
( 0.0246539736017 -0.000731578340614 0.0 -0.000775290226827 0.0 0.0321066423757  ) 
( 0.0251583537841 -0.000716526757993 0.0 -0.000791137811109 0.0 0.0325510869037  ) 
( 0.0258553218626 -0.000730041398539 0.0 -0.000758724392534 0.0 0.0329347236403  ) 
( 0.0263095285779 -0.000620244514461 0.0 -0.000731155546158 0.0 0.0330753966685  ) 
( 0.0262550725732 -0.000580636631844 0.0 -0.000761087634565 0.0 0.0328400391869  ) 
( 0.0262021027153 -0.000584427827561 0.0 -0.000787388093728 0.0 0.0328350419476  ) 
( 0.0259710327181 -0.000558031876487 0.0 -0.000772691812588 0.0 0.0321958142115  ) 
( 0.0260152883294 -0.000539531122576 0.0 -0.000753949437842 0.0 0.031840848204  ) 
( 0.025997462766 -0.000548384949387 0.0 -0.000788499330923 0.0 0.0315216878819  ) 
( 0.0261906131879 -0.000540992647018 0.0 -0.000755302610073 0.0 0.0307623407338  ) 
( 0.0264364610701 -0.000501778462349 0.0 -0.000705961272604 0.0 0.0303399232236  ) 
( 0.0263358351932 -0.000465173237814 0.0 -0.000695780981716 0.0 0.030097948529  ) 
( 0.0264338955649 -0.000476617861946 0.0 -0.000694704073942 0.0 0.0297836092703  ) 
( 0.0260707409512 -0.00041140399939 0.0 -0.000706552409601 0.0 0.0292743902656  ) 
( 0.0257139930376 -0.000401745407889 0.0 -0.000709632038685 0.0 0.0288482239516  ) 
( 0.0257411160437 -0.000424180667658 0.0 -0.000682492918258 0.0 0.0284749808689  ) 
( 0.0256910225276 -0.000401504394453 0.0 -0.00069329910925 0.0 0.028188935724  ) 
( 0.0253013580114 -0.0003705771332 0.0 -0.00070620094553 0.0 0.0277967377125  ) 
( 0.0250338962667 -0.000368684626393 0.0 -0.000716965076744 0.0 0.0272572048692  ) 
( 0.024810676282 -0.000373615374214 0.0 -0.000684525889265 0.0 0.0265232350031  ) 
( 0.0248355595431 -0.000372337608524 0.0 -0.00068349462098 0.0 0.0259482807104  ) 
( 0.0246181834647 -0.000353741040662 0.0 -0.00067234830074 0.0 0.0254713825795  ) 
( 0.0244824783164 -0.000346566160198 0.0 -0.000684514142628 0.0 0.0251156310449  ) 
( 0.0240767252319 -0.000328689083194 0.0 -0.000708278488408 0.0 0.0249012633731  ) 
( 0.023759963674 -0.00032229807391 0.0 -0.000709454285106 0.0 0.0243652795787  ) 
( 0.023354047748 -0.000314742870111 0.0 -0.000709560044942 0.0 0.023790493585  ) 
( 0.0230711739169 -0.000324241808198 0.0 -0.000687473024725 0.0 0.0232377987353  ) 
( 0.022960449398 -0.000327112408288 0.0 -0.000650561283487 0.0 0.0226007464289  ) 
( 0.0228792658466 -0.000340803232042 0.0 -0.000597367523483 0.0 0.0222107856044  ) 
( 0.02274972916 -0.000321886878674 0.0 -0.000572273213363 0.0 0.0218093283122  ) 
( 0.0225127849658 -0.00032533273427 0.0 -0.00055163118644 0.0 0.0215099208086  ) 
( 0.0222556123348 -0.000324013691688 0.0 -0.000528472965616 0.0 0.0210675464626  ) 
( 0.021878367912 -0.000336198184814 0.0 -0.0004998021274 0.0 0.0207067699717  ) 
( 0.0217449777593 -0.000344265666834 0.0 -0.000474947113085 0.0 0.0203823530488  ) 
( 0.021476292036 -0.000353627106329 0.0 -0.000450739967796 0.0 0.020219221802  ) 
( 0.0212617127429 -0.000361155474997 0.0 -0.000408956496113 0.0 0.0198127010744  ) 
( 0.0211796764559 -0.0003805920683 0.0 -0.000371578189212 0.0 0.0195646959256  ) 
( 0.0211031447384 -0.000378267512402 0.0 -0.000346069996279 0.0 0.0193385424407  ) 
( 0.0205404926934 -0.000348910532034 0.0 -0.000318891177136 0.0 0.0190576325067  ) 
( 0.0199886082254 -0.000341594465371 0.0 -0.000296244861482 0.0 0.0188073218081  ) 
( 0.0194567463773 -0.000361782236611 0.0 -0.000254782138886 0.0 0.0186000778176  ) 
( 0.0189544099604 -0.0003705497959 0.0 -0.00020564700677 0.0 0.0184084847239  ) 
( 0.0183366680067 -0.000372493402683 0.0 -0.000156102817586 0.0 0.0182775007106  ) 
( 0.0178115994585 -0.000393716692862 0.0 -8.84666685851e-05 0.0 0.018122082469  ) 
( 0.0172287901504 -0.000374501619946 0.0 -1.92398156949e-05 0.0 0.0183605706104  ) 
( 0.0163215494706 -0.000373062604555 0.0 5.84969943061e-05 0.0 0.0186047362312  ) 
( 0.015320574328 -0.000389944622075 0.0 0.000144615751863 0.0 0.0189054166619  ) 
( 0.0142944912857 -0.000384645551345 0.0 0.00027033292597 0.0 0.0197326406634  ) 
( 0.0132270729033 -0.000124805061698 0.0 0.00038561170584 0.0 0.0218758460456  ) 
( 0.0129527544076 0.000812063609205 0.0 0.000448038068441 0.0 0.0253631671577  ) 
( 0.0133323093876 0.00201675956639 0.0 0.00063953399499 0.0 0.0287974900144  ) 
( 0.01342858528 0.00332515627752 0.0 0.0010584678057 0.0 0.0315965798419  ) 
( 0.0133072873991 0.00454804709222 0.0 0.00166062291925 0.0 0.0336467333444  ) 
( 0.0127988982456 0.0055965885445 0.0 0.00238426867729 0.0 0.0352027717438  ) 
( 0.0122402017311 0.00644273553431 0.0 0.00313547769278 0.0 0.0364339440256  ) 
( 0.0118777462676 0.0073066376973 0.0 0.00409619895618 0.0 0.037207903678  ) 
( 0.0116939687635 0.00794777302022 0.0 0.00474043897246 0.0 0.0378160949419  ) 
( 0.0112643240699 0.00835657019952 0.0 0.00524671409479 0.0 0.0379681445915  ) 
( 0.0112933081211 0.0088555615178 0.0 0.00575320574519 0.0 0.0388900811029  ) 
( 0.0108941208499 0.00889051963357 0.0 0.005789527936 0.0 0.037967003701  ) 
( 0.0108957035697 0.00910117937424 0.0 0.00592814520826 0.0 0.0389365913195  ) 
( 0.0104561028034 0.00893533076644 0.0 0.00569505327817 0.0 0.0388991705713  ) 
( 0.0100733847031 0.00889665052398 0.0 0.00568435549183 0.0 0.0393358454223  ) 
( 0.00944939296794 0.00867556956898 0.0 0.00553123254732 0.0 0.0393025479598  ) 
( 0.00892387829869 0.00862031115049 0.0 0.00547522998328 0.0 0.0388681378019  ) 
( 0.00775934045964 0.00822114877976 0.0 0.00510535664818 0.0 0.0381803663852  ) 