/*--------------------------------*- C++ -*----------------------------------*\
| =========                 |                                                 |
| \\      /  F ield         | OpenFOAM: The Open Source CFD Toolbox           |
|  \\    /   O peration     | Version:  3.0.0                                 |
|   \\  /    A nd           | Web:      www.OpenFOAM.org                      |
|    \\/     M anipulation  |                                                 |
\*---------------------------------------------------------------------------*/
FoamFile
{
    version     2.0;
    format      ascii;
    class       volSymmTensorField;
    location    "0";
    object      tau;
}
// * * * * * * * * * * * * * * * * * * * * * * * * * * * * * * * * * * * * * //

dimensions      [0 2 -2 0 0 0 0];

internalField   nonuniform List<symmTensor> 
15600
(
(0.00286491859204299 -0.00041857861021099 -1.70407837759607e-22 0.00286597325928032 1.80162603486526e-21 0.00286552038508016)
(0.00295121700250075 -0.000443112357376416 1.68282107957827e-21 0.00298257911266118 -3.69384160863529e-21 0.00297437192509999)
(0.00312282132202244 -0.000482516285664393 1.46025593995956e-22 0.00328487203419442 6.87025282744865e-24 0.00324619182433274)
(0.00343295925186277 -0.000508874463880262 -1.04958807449021e-20 0.0038138282544773 -3.71712321928423e-20 0.00372720165630577)
(0.00377211987587283 -0.000474151501861591 -2.70696313197459e-20 0.00438048052187903 -5.71259546226509e-20 0.00425055423913096)
(0.00390164787617152 -0.00040350851658991 -5.67754245438414e-21 0.00461201858968725 -1.43448724746328e-20 0.00446758975484608)
(0.00388077314860961 -0.00034656878793911 -1.21069658483378e-20 0.00461721513986192 -1.77212910644268e-20 0.00447202516745381)
(0.00379648391149254 -0.000310579743743086 1.75902420777969e-20 0.00453581158247616 1.27698411459566e-20 0.00439239307586845)
(0.00368600355824574 -0.000291116371204702 6.50648162620014e-20 0.00442390378111982 8.58329814435052e-20 0.004281278478498)
(0.0035694007315666 -0.000285784027158434 6.10457163230024e-20 0.00430875315823378 9.06772210098748e-20 0.00416456040796604)
(0.00347400704856533 -0.000294987874003736 1.03654686175513e-20 0.00422479506431606 1.10706206408991e-20 0.0040755357990181)
(0.00341067975906165 -0.000311643107632645 -7.89644394860592e-22 0.00418272459278229 -1.89284501845337e-22 0.00402679738502994)
(0.00336359152345171 -0.000329683609415054 6.65133470318357e-21 0.00416039274421893 3.8095050700687e-21 0.00399775567166108)
(0.00332328940958287 -0.000347087522896374 1.12066948097283e-20 0.00414511265064774 1.05753454686119e-20 0.00397608877751886)
(0.00328606365078474 -0.000362803375745708 1.74343880832521e-21 0.00413186108712881 7.30293575075056e-21 0.00395697306137035)
(0.0032464016958126 -0.000375318274032808 -1.88254735366887e-20 0.00411256221102747 -1.92531361256465e-20 0.00393282011332473)
(0.00319659950078625 -0.000384544576242585 -5.11933360600266e-21 0.00407552922441094 -5.25016105594096e-21 0.00389231041903985)
(0.00313830475085821 -0.000396132975862787 1.68417333905063e-20 0.00402212067205245 1.60583169887253e-20 0.00383564095729506)
(0.00308011730972495 -0.000413400596499664 -5.73752131251716e-21 0.0039630602769306 -7.63862141071897e-21 0.00377318167532898)
(0.00302965342457668 -0.000438542129498628 -3.40548608607892e-21 0.0039056820556903 -9.05571220797042e-21 0.00371251589357072)
(0.00299608699599744 -0.00047444445740482 1.69621596768431e-20 0.0038572799123776 1.21385562728805e-20 0.00366161014272686)
(0.00298501905412626 -0.00052398877550332 6.19800083783098e-22 0.0038179683030589 5.46187658202427e-21 0.00362233720589506)
(0.0029874059920691 -0.00058191494593057 -2.92023409262874e-23 0.00376977428342252 3.80919172957767e-22 0.00358051465763997)
(0.0029963996025478 -0.00064075110387477 -8.49444586659832e-21 0.00369851662070095 2.69488074772996e-22 0.00352495943264194)
(0.00300979602531973 -0.000694686648082173 7.87798981227353e-22 0.00359709043812581 1.85299399241834e-21 0.00345033163870526)
(0.00301805550870681 -0.000736017013312667 3.02960851393389e-21 0.00345568629554958 3.23061175199646e-21 0.00334710709036118)
(0.00300256438748955 -0.000756085639488236 -1.43160014390442e-20 0.00326410926045841 3.30597551606471e-20 0.00320221501208106)
(0.00290210870087489 -0.000743135903287751 -1.59578270375151e-20 0.00297864939136127 1.45118030244524e-20 0.00296346566113235)
(0.00280349914076748 -0.000733374609254427 1.21723867555654e-20 0.00280691782182884 -1.31260592164795e-20 0.0028091349726378)
(0.0027737583465914 -0.000741035219807211 -1.11410922842387e-23 0.00277439489633876 -1.33959942563037e-20 0.00277679916783523)
(0.00277041514306399 -0.000747547072216858 3.60886636325867e-21 0.0027698952430563 -3.33671014159501e-20 0.00277195100422678)
(0.00277049340660795 -0.000752075693543502 2.55922983261181e-21 0.00276973140306442 -2.09370641492699e-23 0.00277145048681348)
(0.00277126451101417 -0.000755284775498667 -3.59446195423916e-21 0.00277046027448835 1.16351909121853e-22 0.00277191388739278)
(0.00277212346751833 -0.00075763545505821 -5.11527414372544e-21 0.00277134192069295 1.38116081020195e-20 0.00277258806667875)
(0.00277291028801466 -0.000759403950754595 3.59838418729027e-21 0.00277217209952843 -6.66184310573635e-20 0.00277325490738029)
(0.00277359041904488 -0.000760763914149043 9.77302136524065e-21 0.00277290117684199 -3.03075367886968e-22 0.00277385293238304)
(0.00277416386139674 -0.000761827789032129 3.62305082560189e-21 0.00277352274177387 -1.73290099092206e-22 0.00277436796489821)
(0.00277464382338342 -0.000762672305864493 5.14641861529118e-21 0.00277404821095582 2.64923357729126e-20 0.0027748051196511)
(0.00277504348690344 -0.000763350472104854 3.59720477713161e-21 0.00277448982623771 1.34514243747348e-20 0.00277517265295569)
(0.00277537706893405 -0.000763900802162481 1.02075602166849e-21 0.00277486223537625 -4.58293734337412e-23 0.00277548163472665)
(0.00277565513660257 -0.000764350937287394 2.57587771408225e-21 0.00277517603450302 -3.12337797244939e-22 0.00277574055201294)
(0.00277588783597288 -0.000764721933587475 -3.58300369617104e-21 0.00277544201837713 1.34092505695486e-20 0.00277595813690705)
(0.00277608235671545 -0.000765029385347845 -5.13648328564595e-21 0.00277566754253919 1.37371935395285e-20 0.00277614058244645)
(0.00277624571356393 -0.000765285638313304 7.21119496690207e-21 0.00277586022409631 -2.68453715198562e-20 0.00277629418755688)
(0.00277638254470243 -0.000765499941712045 2.57392941291628e-21 0.00277602479140151 1.31846419529014e-20 0.00277642306731706)
(0.00277649756198133 -0.000765679872039801 -2.23830720646337e-24 0.00277616640811505 1.2294254247528e-22 0.00277653155243342)
(0.00277659375288249 -0.000765831212686923 2.5566676129851e-21 0.00277628809636321 -1.78018566787033e-22 0.00277662233818498)
(0.00277667455963304 -0.000765958880161027 -1.02723749618984e-21 0.00277639368132899 3.9936576980195e-20 0.00277669863431961)
(0.00277674185065661 -0.000766066513018538 -8.72844922483788e-21 0.00277648501502306 2.70792889074412e-20 0.00277676213517285)
(0.00277679801751844 -0.00076615735849499 2.07482177628293e-21 0.00277656478495513 2.76871562358795e-22 0.00277681509564771)
(0.00277684426184007 -0.000766233788080862 9.7700879347654e-21 0.00277663412515348 -2.68819127590805e-20 0.00277685860509323)
(0.00277688224449005 -0.000766297955917522 2.57670362125695e-21 0.00277669493173125 2.64795176695063e-20 0.00277689424457534)
(0.00277691269463692 -0.000766351471806021 -3.60329910349556e-21 0.00277674785763677 -1.3277459703249e-20 0.00277692267091365)
(0.0027769370098193 -0.00076639584350366 -1.05670878925207e-21 0.00277679451049309 -5.94800359215004e-23 0.00277694521444133)
(0.0027769554562032 -0.000766432019193586 -1.04838931024926e-21 0.00277683505324601 2.66045862698109e-20 0.00277696208995221)
(0.00277696916016457 -0.000766461031373459 -4.6530793391573e-21 0.00277687084548996 2.67046394414173e-20 0.00277697438579947)
(0.00277697798384078 -0.000766483408663624 -1.34086944747755e-20 0.00277690156293268 8.02874368417453e-20 0.00277698192730637)
(0.00277698296014951 -0.000766499868001545 -5.13910942398794e-21 0.00277692849415444 1.21562728552082e-22 0.00277698571429923)
(0.00277698358248643 -0.000766510569463291 -4.26718278607622e-24 0.00277695088695045 1.4606933457893e-23 0.00277698521381608)
(0.00277698080672517 -0.000766516002560466 -7.29774489815646e-25 0.00277696998852843 3.9025652799688e-23 0.00277698135599835)
(0.00277697386724076 -0.000766516050648988 -2.29674501805876e-24 0.00277698476839778 -1.33549640489694e-20 0.00277697335078618)
(0.00277696364837301 -0.000766510990461274 9.29139949629288e-25 0.00277699642264532 -3.22236014051814e-23 0.00277696205087407)
(0.00277694930113552 -0.000766500434748205 5.56495974952866e-24 0.00277700384705125 2.16952463570895e-23 0.00277694658208445)
(0.00277693139632065 -0.000766484370994045 -5.13528201537466e-21 0.00277700788667147 6.95126905966452e-26 0.00277692749022654)
(0.00277690895963729 -0.000766462181522619 1.08386660109881e-20 0.00277700733639874 -5.35008560256997e-20 0.00277690377511163)
(0.00277688224157701 -0.000766433554527189 5.12850828255096e-21 0.00277700268233862 -1.33344315153486e-20 0.00277687565774903)
(0.00277685027003993 -0.000766397643432507 2.56755910727406e-21 0.00277699279611474 -5.17880817929001e-23 0.00277684212694331)
(0.00277681304100373 -0.000766353756904713 1.52732194020995e-21 0.00277697791546225 4.01605698857368e-20 0.00277680313097063)
(0.00277676935219024 -0.000766300609990434 -6.17414735319091e-21 0.00277695671006356 5.34434613530262e-20 0.00277675741523214)
(0.00277671868714342 -0.000766236953381789 -5.13404798173263e-21 0.0027769288797504 1.3282997652636e-20 0.00277670441544678)
(0.00277665951242694 -0.000766161029667966 5.38535399880172e-25 0.0027768927877577 8.98473096968374e-23 0.00277664252817348)
(0.0027765910788827 -0.000766070968314549 2.55918557663784e-21 0.00277684793679608 1.48402495602743e-22 0.0027765709077567)
(0.00277651128358158 -0.000765964090271247 3.61734176050858e-21 0.00277679216583332 2.67092812701639e-20 0.0027764873415117)
(0.00277641876732595 -0.00076583749190575 -5.12413759836377e-21 0.00277672444026629 -2.66722859019292e-20 0.00277639033732644)
(0.00277631063448894 -0.000765687214474559 3.59084727225976e-21 0.00277664180125801 -5.33476508443663e-20 0.00277627682515909)
(0.00277618473235576 -0.000765508751364141 5.12937104629546e-21 0.00277654251192859 -7.33190748018376e-23 0.00277614442863647)
(0.002776037008654 -0.000765296043146704 -3.595252420824e-21 0.00277642249056808 2.67718282020211e-20 0.00277598880405062)
(0.00277586410374975 -0.000765041933733524 -2.56721704352968e-21 0.00277627891134 -1.34712760257327e-20 0.00277580620504767)
(0.00277566032686948 -0.000764736831391414 9.72349487995571e-24 0.00277610611956429 2.66798614123216e-20 0.00277559042575627)
(0.00277542038675685 -0.00076436893773395 -5.13250421276585e-21 0.00277589943727226 -8.28904334181631e-24 0.00277533547470833)
(0.00277513639132207 -0.000763922458370875 7.20799927784879e-21 0.00277565109512674 -5.34349067756522e-20 0.00277503246916301)
(0.00277480080326015 -0.00076337706085984 5.13211805913422e-21 0.00277535429597253 2.17676090813903e-22 0.00277467245889572)
(0.00277440281390758 -0.000762704825848645 5.66296460755312e-24 0.00277499823506419 -2.66493872181134e-20 0.00277424257719186)
(0.00277393274545516 -0.000761868306367015 -1.73033429563738e-24 0.00277457366514459 -5.65982929483419e-23 0.00277373004732839)
(0.00277337943076955 -0.000760814517833475 1.83824190805142e-24 0.00277406845491357 2.66273890934879e-20 0.00277311884259338)
(0.00277273941566709 -0.000759468456741018 6.5500487239904e-24 0.00277347752525564 1.08340725697099e-24 0.00277239753444677)
(0.00277202387183275 -0.000757718491455956 -2.557141847649e-21 0.00277280574038129 -9.39968884219515e-23 0.00277156330911537)
(0.00277129899897215 -0.000755394432307504 1.03368718522824e-21 0.00277210487800069 -2.68023503820166e-20 0.00277065591443884)
(0.0027707808335362 -0.000752222238822887 6.14903009679926e-21 0.00277154795116507 -2.66630980532081e-20 0.00276983470218316)
(0.00277122577766674 -0.000747745830351006 1.0245824635516e-20 0.00277176361611443 1.39036212498386e-20 0.00276971433949567)
(0.00277595376213109 -0.000741268176010789 4.9256604651983e-22 0.00277536294463447 9.40954162096202e-20 0.00277295946616076)
(0.00280609288134598 -0.00073310763823814 -2.39044916875149e-20 0.0028033223597477 8.01283530882181e-20 0.00280097164456373)
(0.00295076180923102 -0.000736664468187669 -7.03632137098797e-22 0.00287726822547284 -5.63707505878125e-20 0.00289175120353616)
(0.00314270506536375 -0.000730405164541879 -5.64119415888133e-21 0.00289363805156212 5.70285136732448e-20 0.00295245380351099)
(0.0032733919740898 -0.000701440189459997 -5.43928891527681e-21 0.00285986901308734 -3.60504231767357e-22 0.00296214329123006)
(0.00341432987990836 -0.000664918067815468 3.99643784713087e-23 0.00285570218373653 1.04751609411059e-22 0.0029946731361174)
(0.00358094466040556 -0.000626626190700901 -1.8859643838877e-21 0.00289781658882778 5.24413949903584e-20 0.00306571197751546)
(0.00377252919318558 -0.000588829217410273 -6.19845593249007e-20 0.00298444851852411 1.11507522485443e-19 0.00317379802670821)
(0.00398447284018047 -0.000553152197322666 6.22437959773944e-21 0.00310880798339874 -2.07736491944403e-20 0.00331292236607831)
(0.00421211002829562 -0.000523879900899468 -4.45213277216676e-20 0.00326480821868668 7.79725364211564e-20 0.00347833316860517)
(0.00443601026989137 -0.000503216338329317 -8.89049708970959e-20 0.00343434397499572 9.10453158452575e-20 0.00365343733255039)
(0.0046343178637734 -0.000487868916296059 5.60187215844623e-20 0.00359578604815182 -6.39368880208619e-20 0.00381735330162046)
(0.00479588989803629 -0.000476148238849261 -4.57758643513287e-20 0.00373686398701474 6.73714358354647e-20 0.00395859897387193)
(0.00491145545704068 -0.000466686361340085 6.84093633153685e-20 0.0038479237207981 -7.3583365473919e-20 0.00406799169242136)
(0.00496475247425841 -0.000455991465270603 8.87548839607886e-21 0.00391541463266234 1.54873224889986e-22 0.0041316209717006)
(0.00497354999521559 -0.000439377681778917 2.34377883998765e-20 0.003952116587862 -2.73459900344585e-20 0.00416186109253573)
(0.00497112629142441 -0.000418739779902902 -1.837377219622e-20 0.00398240916467343 2.33510791720975e-20 0.00418438369806288)
(0.00497429736754699 -0.000396480310423991 1.73162267857534e-20 0.00401867499061973 -2.51905453417529e-20 0.00421244875812492)
(0.00499191345291558 -0.000374020290821649 -5.67230869049869e-20 0.00406779501269857 4.90892660900866e-20 0.0042532500345809)
(0.00504723956850228 -0.00035418747494977 2.61707721564343e-20 0.00414801927506002 -3.48419927127665e-20 0.0043257062850822)
(0.00516974023917647 -0.000344177659945836 4.95454918732335e-20 0.00428123238317731 -3.94239539874826e-20 0.00445356197779173)
(0.00532081203374125 -0.000350807897589087 -3.24477720836224e-20 0.00443310995771815 3.98229507351755e-20 0.0046038779290068)
(0.00544761361942603 -0.000372945065008209 3.97971185645552e-20 0.00456084790669815 -5.57732005489568e-20 0.00473220798849393)
(0.00551781357325077 -0.000413175433456377 3.55969801741229e-20 0.0046403203751656 -4.03422616754478e-20 0.00481282572689637)
(0.00545685614918668 -0.000475286986778707 -2.80431000280083e-20 0.00461998047305506 5.1247060422676e-20 0.00478982971857413)
(0.00506608944202394 -0.000545359941540394 -7.27531697921375e-21 0.00436565157648187 8.90100846046016e-21 0.00451510788328819)
(0.00420205947898399 -0.000558434786552741 -5.94310045886473e-21 0.00378322054564978 1.79034522092306e-20 0.00387843320162753)
(0.00342723524241443 -0.00050269524780017 8.12934125515562e-22 0.00325772117877816 -8.01774669053471e-21 0.00329817107553083)
(0.00300450924076402 -0.000446331908221062 -2.04890652097524e-21 0.00297256897787051 3.68635208038885e-21 0.00298092525928237)
(0.00286898698798264 -0.000419028450171973 4.66259185534201e-26 0.00286784520352685 1.92826931346625e-23 0.00286832840160615)
(0.00260908432023187 1.14100313105446e-05 -9.81670028670831e-25 0.00261058185412621 -1.15508993938636e-20 0.00260973884566048)
(0.00274571913638246 2.03240336992785e-05 3.96574781100418e-22 0.00275389352666276 7.91183805533974e-21 0.00274604065740162)
(0.00312678349799064 3.68227878888898e-05 -4.06295735190013e-21 0.00315178608000913 -6.35032412063788e-23 0.00311846802560301)
(0.00386803497969746 6.39053769779632e-05 -3.52220466166614e-20 0.0039141362286215 -1.22271828794886e-19 0.0038354053901132)
(0.0047287123312295 9.46283528737633e-05 -8.48809703730454e-20 0.00478603130491331 -1.86611073703077e-19 0.00466059937542438)
(0.00512776356943995 0.000107783243001231 -1.27857379712057e-20 0.00518447502958256 4.43735035836881e-21 0.00504120167952403)
(0.0051803649581637 0.000109249236227966 1.29081137239319e-20 0.00523683701482137 2.56208280847905e-20 0.00509164536786913)
(0.00508470503604238 0.000106698065390942 -1.06769811139944e-20 0.00514471710605204 -1.96035988583453e-20 0.0050010036159457)
(0.00492641235769389 0.000102613801363953 -8.1289207432184e-20 0.00499456478810148 -4.86269440110471e-20 0.00485151562003867)
(0.00474833998026122 9.78340659102217e-05 -3.57750053585733e-20 0.0048297474556935 2.05740706313371e-20 0.00468489558880042)
(0.00460358196654301 9.41575621690536e-05 -3.09110807154262e-20 0.00470137923237939 -3.03399775611406e-20 0.00455090753330584)
(0.00451626887105475 9.30004491547621e-05 -1.09236123317502e-20 0.00462769363779191 -1.32853244724953e-20 0.0044698813969202)
(0.00445865507036607 9.32243431606171e-05 -1.14816448918227e-20 0.00458070025657207 -1.18242300922005e-20 0.0044155730282556)
(0.00441329332176366 9.38989340286987e-05 1.84036114322e-20 0.00454439489942736 -2.45495189934772e-21 0.00437230432881962)
(0.00437335197639914 9.46680266160978e-05 3.29058387688871e-20 0.00451240184013668 2.91862770648568e-20 0.004333856507941)
(0.0043279264952871 9.46967449572194e-05 -4.785070675406e-20 0.00447449352945066 -2.84716681936955e-20 0.00429044622233966)
(0.00425991480719492 9.21416945106019e-05 4.35217919928501e-20 0.00441622425075883 5.35660910863537e-20 0.00422785010398403)
(0.00416795098969376 8.57065282180879e-05 -7.7618736220291e-20 0.00433955370635487 -7.18120245386869e-20 0.00414658609538516)
(0.00406704042838899 7.5582440015836e-05 3.47254497705149e-20 0.00425836949904994 3.05557157059159e-20 0.00406024500763411)
(0.00396969627981275 6.12374630336488e-05 -2.37360724523749e-21 0.0041841593288602 -1.51411829928245e-21 0.00398046546536868)
(0.00388980308188394 4.17271714518002e-05 -3.05208640842094e-20 0.00412950223539914 -3.31697637336336e-20 0.00392024696388796)
(0.00383174527970249 1.66960451713298e-05 -3.81311737109481e-21 0.0040937878369658 -3.12789365602508e-20 0.00388089428089191)
(0.00377520984817329 -1.17670528745485e-05 -1.17296337452916e-20 0.00404665374660854 -1.64846771101999e-22 0.00383712228172203)
(0.00370592477207139 -4.09972607401789e-05 3.41240402850864e-20 0.00396810710215041 -2.14153542356496e-21 0.00377245158144909)
(0.00361742586879444 -6.77220770135769e-05 -9.1660307111458e-22 0.0038495780726855 -4.60036795008477e-21 0.00367977423928164)
(0.00349219460949382 -8.64007606270334e-05 -7.85992491701366e-21 0.0036736639484766 1.23603695055378e-20 0.00354180548058053)
(0.00330036501720774 -8.99623311589342e-05 -5.61013427583884e-20 0.0034173329064529 -6.33108048401426e-20 0.00333231390925097)
(0.00292556718174438 -6.40033527965983e-05 -3.77390495585561e-20 0.00297520596673349 -1.1045811425649e-19 0.00293893924243596)
(0.00263888615403166 -3.26596596336381e-05 -7.87892285625214e-21 0.00265756371298767 2.98130934451619e-20 0.00264523071955582)
(0.00255748820572259 -1.84718745156251e-05 1.12260839411369e-20 0.0025670517426075 2.95172297799473e-20 0.00256098592000965)
(0.0025398696857226 -1.35181708471188e-05 1.07665825921164e-20 0.00254553652977988 5.70696688591768e-20 0.00254170335033784)
(0.00253325373603403 -1.0680627989478e-05 -6.31307123867024e-21 0.00253709614564428 6.03562723296831e-22 0.00253439759820944)
(0.00253018585380328 -8.8343272668079e-06 -1.25652250322592e-20 0.00253298164404726 2.37903516379726e-22 0.00253096177058146)
(0.00252860210282246 -7.54545137643362e-06 -1.84711607817712e-20 0.00253073277427277 1.1305530434348e-21 0.00252915703079614)
(0.002527729991088 -6.60535802237552e-06 -2.99293533851401e-21 0.00252940839502476 5.46381065792029e-20 0.00252814149142538)
(0.00252722976655355 -5.8979518156334e-06 8.84539077005234e-21 0.00252858630369617 -3.02687051354729e-20 0.0025275431572483)
(0.00252693455635338 -5.35310094454091e-06 -9.58504825903017e-21 0.00252805335478962 5.92341330403001e-20 0.00252717817715917)
(0.00252675793300228 -4.92570262362383e-06 -3.21397915599514e-20 0.00252769630224209 2.53694921360231e-21 0.00252695043457509)
(0.00252665136020564 -4.58548326630824e-06 9.59951066750234e-21 0.00252744914443474 -5.85240650226856e-20 0.00252680550042288)
(0.00252658788863097 -4.31137250608662e-06 -4.81383386245272e-21 0.00252727413130421 -6.66962472290622e-23 0.00252671266272176)
(0.00252655080363708 -4.08836444018118e-06 -2.94820777185073e-21 0.00252714664910183 4.78839367218484e-22 0.00252665272051763)
(0.00252653055587199 -3.90541778523794e-06 1.07236531312147e-20 0.00252705211782484 -2.88448028788028e-20 0.00252661443428187)
(0.00252652066545425 -3.75430387659182e-06 2.93736793182531e-21 0.00252698002156767 -2.89932294580382e-20 0.00252659013378777)
(0.00252651760943355 -3.62876434143643e-06 -6.30932995868944e-24 0.00252692433110959 5.73386756892071e-20 0.00252657544146411)
(0.00252651862825465 -3.52400271413357e-06 -1.54907818303737e-20 0.00252687999503714 1.19274901579131e-21 0.00252656697298836)
(0.00252652237607463 -3.43625449394596e-06 -2.96566058285324e-21 0.00252684430812864 -2.95969416683547e-20 0.00252656292704547)
(0.00252652752343868 -3.36252726437058e-06 2.92772143224337e-21 0.00252681453632622 -4.50329786732501e-24 0.00252656162536814)
(0.0025265337345087 -3.30044936673202e-06 -7.74345203556044e-21 0.00252678964507801 -2.65243537624724e-20 0.00252656245486421)
(0.00252654031840972 -3.24814422247709e-06 2.9738172939306e-21 0.00252676803184769 -5.76587392661038e-20 0.00252656451699551)
(0.00252654723699044 -3.20407033426851e-06 -7.76607971720844e-21 0.00252674926654996 2.95341485121039e-20 0.00252656761047234)
(0.00252655411825104 -3.16699940186453e-06 -1.22660054337587e-23 0.00252673233967344 5.75108990893266e-20 0.002526571229195)
(0.00252656103217065 -3.13592124086106e-06 -2.95023439551789e-21 0.00252671710988495 3.2116877734022e-20 0.00252657534774221)
(0.00252656768728747 -3.10997974588117e-06 1.84994463542362e-21 0.00252670281484592 -8.35310510426465e-22 0.00252657958842734)
(0.00252657435663667 -3.08851158163352e-06 2.93671650606154e-21 0.00252668966447606 -2.96542487414715e-20 0.00252658414400883)
(0.00252658076394023 -3.07097937240616e-06 6.8890556119603e-25 0.00252667700210347 -5.73486301564607e-20 0.00252658867725886)
(0.00252658722748307 -3.0569729185491e-06 5.92308289784332e-21 0.00252666519070587 -5.76047218789561e-20 0.00252659346106936)
(0.0025265934103004 -3.04613365750824e-06 9.72572300183831e-24 0.00252665350259655 -8.31970697040184e-20 0.00252659811446322)
(0.00252659972781558 -3.03822419086726e-06 -5.91056668698635e-21 0.00252664247290738 1.9082446417337e-23 0.00252660301338756)
(0.00252660576524907 -3.03304274368026e-06 2.34505484058104e-25 0.00252663127570703 2.97377830582045e-20 0.00252660771143666)
(0.00252661199765785 -3.030471736626e-06 -2.9584692783509e-21 0.00252662057403403 -2.17277458014737e-23 0.00252661265301492)
(0.0025266179939256 -3.03043277959873e-06 7.75188652969823e-21 0.00252660952448344 2.85948390439289e-20 0.00252661737775104)
(0.00252662428867134 -3.03292106105001e-06 2.95962078342154e-21 0.00252659888280694 5.95629723973737e-23 0.00252662238286236)
(0.00252663050232559 -3.03801937762176e-06 5.85401222421628e-24 0.00252658786851899 9.97306110569744e-23 0.00252662725869766)
(0.00252663708743934 -3.04584134803969e-06 -2.1544174165377e-24 0.0025265771019269 -2.98348065085248e-20 0.00252663242799677)
(0.00252664374041829 -3.05658800223262e-06 -2.95751219218993e-21 0.00252656588645958 1.44312124618113e-19 0.00252663755601705)
(0.00252665085436608 -3.07048834147404e-06 1.55158470849699e-20 0.00252655471283556 -8.90919511653115e-22 0.00252664300047644)
(0.00252665826386937 -3.08787684097853e-06 5.9116733540803e-21 0.00252654306142625 2.5284827889539e-22 0.00252664854960464)
(0.00252666641703134 -3.10917609678941e-06 -7.76269390380682e-21 0.00252653143283221 -8.58514354759698e-20 0.00252665459488062)
(0.00252667527563563 -3.13495627824383e-06 1.26135903023908e-24 0.002526519393253 -1.44549699690525e-19 0.00252666103570022)
(0.00252668526949916 -3.16589043382354e-06 -7.74095196209473e-21 0.00252650729427421 8.97990826566219e-22 0.00252666824444373)
(0.0025266964374135 -3.20276267964128e-06 -2.95273568812713e-21 0.00252649468358245 -2.97455512171907e-20 0.00252667617634228)
(0.00252670951249678 -3.24657676649585e-06 7.74542764313505e-21 0.00252648212388804 -5.94313204168197e-20 0.00252668544938072)
(0.00252672477345426 -3.29857728610484e-06 -5.90145717795686e-21 0.00252646925020044 -8.71454696764136e-20 0.00252669621161076)
(0.00252674327416983 -3.36029819148515e-06 1.85743566698953e-21 0.002526456764986 -2.36541466850048e-21 0.00252670935824032)
(0.00252676574171621 -3.43361299670823e-06 2.14008226362485e-20 0.00252644444411033 5.54726665800031e-20 0.0025267254081108)
(0.00252679395955026 -3.52088275750828e-06 5.91187295112631e-21 0.00252643339790114 5.53569090665564e-22 0.00252674587774364)
(0.00252682960359674 -3.62504409690399e-06 -2.94341415879082e-21 0.00252642385336222 -5.74187890469437e-20 0.00252677209516405)
(0.00252687596127343 -3.74984427153738e-06 1.36677188189451e-20 0.00252641783750268 -3.05309719249851e-20 0.00252680688644366)
(0.00252693685681585 -3.90007021454958e-06 -4.78193708850987e-21 0.00252641683621101 2.21332039732722e-21 0.00252685346067374)
(0.00252701884316891 -4.0819206123501e-06 -5.91268009709423e-21 0.00252642493095903 -5.98039489636693e-20 0.0025269175342367)
(0.00252713081962273 -4.30351029278656e-06 -1.0796125858321e-23 0.002526446978589 2.03885970239312e-19 0.00252700682378877)
(0.00252728764757665 -4.57578926084869e-06 -5.90370299917107e-21 0.00252649296329564 6.32086503285701e-24 0.00252713450362993)
(0.00252751136905999 -4.91366476465295e-06 1.55112309813526e-20 0.00252657705640496 -6.13474685099322e-20 0.00252732015724225)
(0.00252783918520954 -5.33799778294403e-06 1.18129600055766e-20 0.00252672576606354 -2.90298523298918e-20 0.0025275972820783)
(0.0025283320372051 -5.87866241071323e-06 8.42106232368607e-24 0.00252698272510338 1.94552615703342e-21 0.00252802101012909)
(0.00252909888731747 -6.58016074213512e-06 -5.90173411712829e-21 0.00252743057738916 2.93133777189116e-20 0.00252869076741721)
(0.00253033977750281 -7.51149363955601e-06 5.88596433006544e-24 0.00252822376541135 -2.63001247514337e-23 0.0025297898713258)
(0.00253245709685225 -8.78689862101173e-06 -2.03179878545371e-23 0.00252968402001555 5.74684347427861e-20 0.00253168908700414)
(0.00253633234276333 -1.06105373439062e-05 2.9479637110111e-21 0.0025325279566958 -1.59534466578604e-21 0.0025352023749917)
(0.00254423866173818 -1.34029721608387e-05 -2.0409076764932e-20 0.00253864685807244 1.63138373140175e-21 0.00254243537244338)
(0.00256380204765329 -1.82130834013887e-05 -2.97832791859124e-21 0.00255440780901857 -2.33204048358764e-19 0.00256036440238386)
(0.00264572633271488 -3.19952073068625e-05 -3.06838587825741e-21 0.00262788569740006 -5.62317694150045e-20 0.00263979319781249)
(0.00288362025751241 -5.61651138045291e-05 -4.73901916137191e-21 0.00283800233413965 1.2966496750589e-19 0.00287228805189692)
(0.00308897931512755 -6.11273522131223e-05 8.2962878872749e-21 0.00299157218973861 -6.46799892200598e-20 0.00306691010669128)
(0.00317048872132228 -4.19183565166886e-05 -1.48600984530663e-20 0.00303171596850698 6.87452533740567e-20 0.00314338470598034)
(0.0032768622227216 -1.49351362950144e-05 -2.70573198569863e-20 0.00310949072349844 1.32722628251421e-19 0.00325121403764638)
(0.00343854954390821 1.50104772840472e-05 -8.57697327466709e-20 0.00325549964756354 1.24279283814881e-19 0.00342158948172203)
(0.00365427868469139 4.57339802220541e-05 1.65761290094774e-19 0.00346759835156478 -3.43768708829581e-19 0.0036528405154835)
(0.00391238854664677 7.63323556150614e-05 -1.28373992645432e-19 0.00373416129954139 2.2497490098723e-19 0.00393328999667776)
(0.00420320639134783 0.000105336794974945 1.39531919750032e-19 0.00404346130525487 -2.06840849795368e-19 0.0042519094779897)
(0.00450086173609138 0.000129887093335002 6.39826766502277e-20 0.00436331242949402 -9.7921801268322e-20 0.0045777699807417)
(0.0047732161505111 0.000148632408662219 -3.04856921308069e-19 0.0046573396061364 3.76163873081941e-19 0.00487473048637298)
(0.00500224357925427 0.000161599848076218 6.62383979635902e-20 0.00490514068337286 -1.47830433506598e-19 0.00512292855600295)
(0.00517400489815711 0.000168815611605427 -2.37496133381173e-19 0.00509065166211362 2.57284298992198e-19 0.00530678018453759)
(0.00526766718734576 0.000169448524588146 -3.03972545586358e-21 0.00519104366827743 6.10888234294954e-21 0.00540325833682483)
(0.00530612304652073 0.000165592621679279 1.06310389369281e-19 0.00523331357456408 -1.20630936326426e-19 0.00543897032285861)
(0.00533218203990183 0.000160507571733254 1.09687508037851e-19 0.00526371695549385 -1.41022133544647e-19 0.00546153720806327)
(0.00536763997217786 0.000155683321625244 1.16106416904212e-19 0.00530491471024232 -8.95582333053262e-20 0.00549452609981294)
(0.0054238131267905 0.00015170853108537 2.75865374083761e-19 0.00536877370054801 -2.97176295850743e-19 0.00555008190062123)
(0.00553031237327758 0.000150127661564884 -1.82815559219215e-19 0.00548677232267542 2.09640792818647e-19 0.00566036148493932)