/*--------------------------------*- C++ -*----------------------------------*\
| =========                 |                                                 |
| \\      /  F ield         | OpenFOAM: The Open Source CFD Toolbox           |
|  \\    /   O peration     | Version:  3.0.0                                 |
|   \\  /    A nd           | Web:      www.OpenFOAM.org                      |
|    \\/     M anipulation  |                                                 |
\*---------------------------------------------------------------------------*/
FoamFile
{
    version     2.0;
    format      ascii;
    class       volVectorField;
    location    "0";
    object      Ud;
}
// * * * * * * * * * * * * * * * * * * * * * * * * * * * * * * * * * * * * * //

dimensions      [0 1 -1 0 0 0 0];

internalField   nonuniform List<vector> 
15600
(
(0.76395353076144 -0.000256827192816619 -1.25558474225143e-17)
(0.78619882710865 -0.00511480067706642 1.25127756167637e-17)
(0.809471638162698 -0.02288452717709 -6.00952532864483e-21)
(0.809126851155467 -0.0474810950105098 2.85703794412547e-18)
(0.772395641329299 -0.0699684471469781 7.49111562070364e-19)
(0.722471705537529 -0.0819561550623862 1.26261251421471e-18)
(0.679439688705017 -0.0872415470837876 4.511919539649e-17)
(0.646236332756787 -0.0892916362367725 -4.4775977068171e-17)
(0.621102524778533 -0.0897155825602179 -1.3923635103041e-16)
(0.603023075591688 -0.089267473590105 -1.30699551905492e-16)
(0.593197789092585 -0.0884637854076972 -5.00946574559898e-17)
(0.590084774851549 -0.0876067724872041 2.09870172672308e-19)
(0.58971712105442 -0.0868143733838143 -2.78413550005853e-17)
(0.589873832582064 -0.0860968681680064 -1.74576324505068e-19)
(0.589576743238745 -0.0854294785248705 2.99543868359371e-17)
(0.587591437219793 -0.0846976562799904 1.75537060457216e-18)
(0.582654828380895 -0.083635101339456 3.22680802305078e-17)
(0.575870411501266 -0.0820345679542042 -6.79218247561174e-17)
(0.569058564863219 -0.0798108692003688 1.77496728971081e-17)
(0.563051343706099 -0.0767877997609974 1.89475690190617e-17)
(0.558666663841637 -0.0726788642544366 -3.84815842501496e-17)
(0.557674650285836 -0.0671698814680171 3.87009160638459e-19)
(0.560869406978495 -0.0601528961272638 -2.11991087261371e-19)
(0.567135297766524 -0.0515056477774692 4.04130463130289e-18)
(0.575758787817005 -0.0410202751478923 -5.57185540954138e-20)
(0.587152083209703 -0.0287231376814977 4.16064856054799e-19)
(0.603097829267915 -0.0150897265511601 -3.81769977752043e-17)
(0.632900378881592 -0.00194274885552339 -4.63141933703927e-17)
(0.666428157710789 0.00264406310477678 4.90082786993375e-17)
(0.686369567225408 0.00201316216371689 1.40589369106251e-19)
(0.695588859481626 0.00156187043662856 4.92219593388788e-17)
(0.701120572150579 0.00124569295913188 1.2105797732124e-19)
(0.70478167630931 0.00102169051669494 5.88256011591881e-20)
(0.707356400941382 0.000856886214020841 -1.47540071322634e-19)
(0.709241831698799 0.00073203026483327 9.82721651188608e-17)
(0.710663841086868 0.000634775565283735 8.47655197579847e-20)
(0.711760661980904 0.000557409834723902 4.9331516354906e-17)
(0.712621823277817 0.000494497092424238 -1.25335161651937e-19)
(0.713307722574371 0.000442485340083253 -4.93914305733589e-17)
(0.71386052951558 0.00039861753605086 1.82432432995937e-19)
(0.714310389350971 0.00036109565781752 3.35162351469748e-19)
(0.714679482265654 0.000328419212482668 -4.92119831347612e-17)
(0.714984368332025 0.000299611203105957 -2.66291369831643e-19)
(0.715237655215129 0.000273775047470421 4.92683957687432e-17)
(0.715449029152067 0.000250371257794946 8.86481411712177e-20)
(0.71562607583928 0.00022885165913744 -7.52745917965912e-20)
(0.715774822884452 0.000208905639383189 1.31555864622297e-19)
(0.715900051815295 0.000190160323367999 -4.90840618641481e-17)
(0.716005559562635 0.000172439216330901 -4.94803058770928e-17)
(0.71609445754831 0.000155489808468178 4.89195647752537e-17)
(0.716169231740558 0.000139220164631553 4.93553645593373e-17)
(0.716231916787106 0.000123453640982828 2.60107091568742e-19)
(0.716284233264462 0.000108139714099633 -3.17582578972099e-20)
(0.716327522076689 9.31381378667003e-05 2.0470625564353e-20)
(0.716362859437436 7.84321593146834e-05 -4.90809145573288e-17)
(0.716391093749605 6.38948757452556e-05 -4.91883223895824e-17)
(0.716412936684467 4.95559941798777e-05 -9.8504751001112e-17)
(0.716428883757565 3.52891338570728e-05 -1.05899028353321e-19)
(0.716439329432514 2.11554690784948e-05 -9.58239311939964e-21)
(0.716444516588226 7.02198297122947e-06 -2.41152566042802e-20)
(0.716444593041714 -7.03975590978676e-06 4.4042636455525e-21)
(0.716439567475102 -2.11709953965626e-05 1.99035263595889e-20)
(0.716429284410999 -3.5303930546938e-05 -1.34033980200573e-20)
(0.716413511081957 -4.95650825439e-05 -8.67533737106091e-20)
(0.716391852555628 -6.38984262447613e-05 9.84087689377401e-17)
(0.716363827818532 -7.84215596553185e-05 8.66660490482708e-20)
(0.716328759339947 -9.31164442220327e-05 1.15168192561215e-19)
(0.716285791332349 -0.000108116740294575 -4.91239230229241e-17)
(0.71623378900437 -0.000123429352079864 -9.84606178112976e-17)
(0.716171394946658 -0.000139191967386665 -8.7909702959952e-20)
(0.716097015776912 -0.00015544283392221 -5.60160749304678e-20)
(0.716008622779954 -0.000172368509391332 -9.82320375981918e-20)
(0.715903697255547 -0.000190065092703682 -4.91100918399151e-17)
(0.715779157785845 -0.000208793385979674 -1.34340240967519e-19)
(0.715631210742166 -0.000228711509864372 4.91142072968881e-17)
(0.715455101397381 -0.000250202050471478 3.3276685353361e-19)
(0.71524489020536 -0.000273548707251479 -4.92182250831962e-17)
(0.714993025558289 -0.000299330752590604 -4.34325232459272e-20)
(0.714689856188291 -0.000328063193202608 1.97284784661706e-21)
(0.714322885226348 -0.000360637952951409 -2.2987035769802e-19)
(0.713875737782986 -0.000398008756816394 9.84206594272706e-17)
(0.713326402012911 -0.000441703364959095 1.43510877962238e-19)
(0.712644929532941 -0.000493495700650647 -1.22289258406798e-20)
(0.711789531074651 -0.000556112293425762 3.48810213028038e-20)
(0.710700471719491 -0.000633050764442804 2.09688357249383e-20)
(0.709289239602352 -0.00072972988848908 -3.94106175400724e-22)
(0.707419419902174 -0.000853769909566305 -1.04753479464225e-19)
(0.704868014573153 -0.0010174829989923 4.90947632454138e-17)
(0.701244323210294 -0.00123982081666691 4.93460447561315e-17)
(0.695780895913082 -0.00155346719590916 2.80409771123253e-19)
(0.686728658609834 -0.00200127524038609 -1.47453211490498e-16)
(0.6670640269955 -0.00266665527325929 -1.47772257124441e-16)
(0.63808987798635 0.00181617177705469 9.86715242285662e-17)
(0.619898734585959 0.0152937246420979 -9.76314644726253e-17)
(0.614433967218805 0.0297572836363843 -6.23075581462471e-20)
(0.611862019801134 0.0431267821080646 -6.056696957586e-20)
(0.610103300209737 0.0547263751815757 -1.33577430481906e-18)
(0.608791632874236 0.064388597792603 -2.58168155839725e-16)
(0.608862195542918 0.0722430177915458 8.23129309953206e-17)
(0.611585343859024 0.078347237899596 -1.56883124606446e-16)
(0.616417396907965 0.0827904040089763 -7.47496957420105e-17)
(0.622034657208932 0.085953364186672 2.85586085343328e-16)
(0.627930372161128 0.08818596280271 -1.43021930579313e-18)
(0.63346998521703 0.0897022301695751 1.98634092945404e-16)
(0.636935847765384 0.0906170220152896 -6.44310662989096e-17)
(0.637378958338157 0.0911894399729969 3.28389098228662e-19)
(0.636105946751047 0.0917012216090402 -1.18706608911951e-16)
(0.634349292417436 0.0922701641165439 -1.12658645212766e-16)
(0.633085853355113 0.0929125953230987 -1.62088816399086e-16)
(0.634517403036826 0.0936102684252523 2.05504542009293e-16)
(0.642609150900705 0.0942299644260772 2.42559919262097e-16)
(0.658912753883827 0.0944430877836546 -1.40255414866586e-16)
(0.682239139155421 0.0937282822739794 1.37318898645405e-16)
(0.713484492706129 0.0912963017712035 1.34356879598974e-16)
(0.75396355673367 0.0854494993670282 -9.07770333181248e-17)
(0.79944315118008 0.0725188261334802 -4.64450270653211e-17)
(0.827844526809151 0.0487213804183306 -2.43824146951134e-17)
(0.818778212064921 0.0232622352210115 5.38200876889308e-20)
(0.788208958597997 0.00518614021580663 -1.25499705589058e-17)
(0.764012537920819 0.000276815617147617 -4.96316425164088e-20)
(0.743684338037909 -0.000563182101431303 6.40660086133698e-18)
(0.75464269549962 -0.00921111323701341 1.79872459575388e-20)
(0.763536205262503 -0.0400823103615043 -1.22329227255797e-20)
(0.751516312862804 -0.0827114145373121 1.10300311957533e-16)
(0.709866277501458 -0.121466777261361 1.69830027695166e-16)
(0.662862576922546 -0.14178560231325 4.16665612947194e-17)
(0.625963408879362 -0.150639248707031 1.20625694291354e-17)
(0.599746178679861 -0.154304587502515 6.79998707708665e-20)
(0.582025164152647 -0.155591240973638 8.22705175284551e-18)
(0.571668689086548 -0.155684926358889 -1.19687378898949e-17)
(0.568588470651416 -0.155182824807699 1.3992081759116e-17)
(0.569595184791472 -0.154403248026333 4.42541968626953e-19)
(0.571679940246649 -0.153585985901548 1.5225561392293e-17)
(0.573625665573646 -0.15282865509049 -3.08617804427559e-17)
(0.574872365561305 -0.152149937537505 -4.89298386119247e-17)
(0.57479517511832 -0.151474321345006 5.163347580849e-17)
(0.573294211673626 -0.150528274133068 -1.82367412986778e-17)
(0.57219621436227 -0.148949798472352 2.78108410356268e-17)
(0.572743280876174 -0.146443756882185 -2.37175131800317e-19)
(0.575547787604317 -0.14260874958612 6.72166579978222e-19)
(0.581230279153367 -0.136827596200938 1.03144771147031e-17)
(0.59066882643741 -0.128290445315159 -1.0100772676266e-17)
(0.603126410081758 -0.116612092554494 -4.6641281768568e-19)
(0.617011431657993 -0.10165677929275 -3.28049309821869e-18)
(0.631314073999725 -0.0831681082772756 -3.15540191009916e-18)
(0.645436366118234 -0.0612150652034665 -6.19192767936163e-18)
(0.659414219181443 -0.0365330453133268 -5.93557794186963e-18)
(0.676513367438867 -0.0114626367336834 2.74902212406506e-17)
(0.692661570615103 -0.000618248522004095 -2.55627247433807e-17)
(0.702623830289817 0.000197882517579138 2.54065635084196e-17)
(0.707520357395448 0.000338988343948017 1.27639453398826e-17)
(0.710473470318937 0.000347106235541233 7.96835087011152e-20)
(0.712431337467767 0.000326573086222172 1.18833458890412e-19)
(0.713809277767699 0.000299681739617544 -2.55866044738808e-17)
(0.714818763764724 0.000273376565189591 2.53464324494636e-17)
(0.715580341596341 0.000249225656375547 1.76093817616927e-19)
(0.716167878016246 0.000227838376062517 -5.08105367779758e-17)
(0.716629245485212 0.000208843867397479 -5.09941542918635e-17)
(0.716996756758128 0.000192124525918023 2.54063186759945e-17)
(0.717292979817416 0.000177125215619733 4.0709790307773e-20)
(0.717534055395568 0.000163698461606488 1.13740182696504e-20)
(0.717731859227198 0.000151431785530638 2.54321401371605e-17)
(0.717895260298778 0.000140229228669801 -2.54936503625912e-17)
(0.718031011721975 0.000129762768637543 1.33679662868065e-19)
(0.718144303735054 0.000120006941800017 -2.5439310329791e-17)
(0.718239199844083 0.000110735450647704 -1.5631335058032e-19)
(0.718318929212351 0.000101958620197707 1.02859644274567e-19)
(0.718386053457699 9.34759798682249e-05 -2.53716884863822e-17)
(0.718442607835364 8.53202315148806e-05 -5.91344878780088e-20)
(0.718490259748839 7.73405455144523e-05 -5.09839679321563e-17)
(0.718530341910537 6.95896743371829e-05 -2.65201744548892e-20)
(0.718563944255616 6.19502396014381e-05 -5.08783262375747e-17)
(0.718591988650636 5.44783114621478e-05 2.53825013532573e-17)
(0.718615193719195 4.70548250883781e-05 4.23029442765157e-20)
(0.718634135611733 3.97465831853779e-05 8.99765890416648e-20)
(0.718649270483944 3.24265030805133e-05 3.63697387918373e-20)
(0.718660978996239 2.52064309715822e-05 -5.09225815839892e-17)
(0.718669527776173 1.79420230531833e-05 -4.73930137190282e-20)
(0.718675127477902 1.07788863358294e-05 -1.78715064497489e-20)
(0.718677908538684 3.552555888822e-06 -4.94126903134255e-20)
(0.718677949606875 -3.58193265860074e-06 2.54619235892057e-17)
(0.718675255137819 -1.08055912828215e-05 4.08189921201243e-20)
(0.718669742714134 -1.79694016142341e-05 -2.78191450757731e-20)
(0.718661287245041 -2.52275455217611e-05 -9.5987602611618e-21)
(0.71864967793552 -3.24427784817043e-05 -9.26417509073938e-21)
(0.718634655549791 -3.97459414090073e-05 2.54620873000678e-17)
(0.718615856907441 -4.70440368510539e-05 6.63167626946576e-20)
(0.718592823128423 -5.44744776721166e-05 -2.54526484329473e-17)
(0.718564947184013 -6.19579898542878e-05 6.99554165749661e-20)
(0.718531501505451 -6.96036781881339e-05 -2.54635120471332e-17)
(0.718491631705207 -7.73401553404223e-05 -1.13216180308101e-19)
(0.718444250329029 -8.53061561644426e-05 -3.2510930063983e-20)
(0.718388007158605 -9.34513383292636e-05 3.08492498405726e-20)
(0.718321252026747 -0.000101941625030143 5.07953856735238e-17)
(0.718241951355187 -0.000110719169672541 5.08864338648266e-17)
(0.718147558147683 -0.000119997175601166 1.79730476732944e-19)
(0.718034889256462 -0.000129731434559628 -3.19864934617331e-20)
(0.717899899381072 -0.00014019926558176 2.5531223679414e-17)
(0.717737418697792 -0.00015139263117862 -5.08986379063912e-17)
(0.717540752956377 -0.000163639587234131 -1.35177842627869e-19)
(0.717301130454686 -0.000177013368429088 2.7430612925729e-20)
(0.717006765538694 -0.000191983832969018 -4.21909222838504e-20)
(0.716641625245531 -0.000208678952391731 5.08753154233693e-17)
(0.716183345337254 -0.000227638494649185 7.16770000335523e-20)
(0.715599964966066 -0.000248950328597692 -5.08603765282408e-17)
(0.714844154004938 -0.00027304683303566 -8.40246726015636e-22)
(0.713843013180104 -0.000299329737685246 -4.65725911597313e-20)
(0.712477528537732 -0.000326443462876237 -5.15029730788565e-20)
(0.710539604931739 -0.000347554061315865 1.28213210959615e-19)
(0.707622658567545 -0.000341447090542837 -2.53831643764302e-17)
(0.702810540057158 -0.00020939598888691 -2.54814015713936e-17)
(0.692980613325389 0.000514364380027789 -1.18368165609277e-20)
(0.6782122894533 0.0111486725520217 -5.21378579474388e-20)
(0.66426844943729 0.0363647579988382 9.13201452465585e-20)
(0.653031160319744 0.0616822836906172 -1.31095461435867e-19)
(0.641103326594271 0.0844814524874772 -1.20477595863595e-19)
(0.628362705564115 0.103860478175827 -9.56701358088553e-17)
(0.615449736606748 0.119631989341866 4.60551124659881e-17)
(0.603469962575335 0.131986170217218 -4.41306073679493e-17)
(0.594115830316747 0.141004622280246 7.03674255400593e-19)
(0.588263004734917 0.147055123138303 -1.19221202282614e-16)
(0.585163331796683 0.150999557516533 -1.53733066821672e-16)
(0.584266548844663 0.153510010004329 -1.46443765593149e-16)
(0.585006487557389 0.155016701628531 -3.62568806434313e-17)
(0.586154037464257 0.155839448880734 6.78804168080116e-17)
(0.585871737461404 0.156382184558463 6.53498072408014e-17)
(0.58424517628489 0.156930411152259 6.31529950865521e-17)
(0.581895316120614 0.157566148768738 1.8042175539091e-16)
(0.579391756578711 0.158260067206229 2.9672731947481e-17)
(0.577942711341247 0.158907003427808 -1.09401325768176e-16)
(0.580571736734751 0.159258509617281 -1.30053556328823e-16)
(0.590529116584045 0.158977153348667 2.53347483436753e-17)
(0.607911059439112 0.157463949262747 2.37514732921086e-17)
(0.633811298934897 0.15350950962155 -2.26615015211692e-17)
(0.670297518205686 0.144255765326548 -4.64857066900091e-17)
(0.716469157597926 0.123282877702755 2.40709853772054e-17)
(0.756237668344005 0.0836260216302246 -2.51443548990264e-17)
(0.765909025971034 0.0404088722581749 2.55491555367188e-17)
(0.755183299066978 0.00931856161143667 8.67162587928134e-21)
(0.743712665812317 0.000597165082980788 -1.60446124868261e-20)
(0.74554191367131 -0.000969589211923539 6.65143567470099e-18)
(0.756273612453445 -0.0113759751373987 1.70510133186764e-20)
(0.764700944948323 -0.0463500435858303 1.91798499740759e-21)
(0.75088824261772 -0.0944750907831988 1.19372882764683e-16)
(0.705797404723586 -0.138020109429677 1.63700331970518e-16)
(0.655372895193569 -0.161184467373664 -3.49243720892581e-20)
(0.615862330323505 -0.171513342039832 1.79150555590277e-17)
(0.58793240527903 -0.175904504365521 -2.43347022375044e-17)
(0.569324006164276 -0.177534366692262 9.05514632778039e-17)
(0.558815263250012 -0.177800514362056 1.26727659529301e-17)
(0.556059539316236 -0.177430103702218 -1.44009948345323e-17)
(0.557499565622342 -0.176643343002483 1.56146198231218e-17)
(0.560017019611742 -0.175729201476626 -1.53933647558973e-17)
(0.562359497543954 -0.174850829245262 9.66773323686279e-19)
(0.563933808214519 -0.174032962862561 1.45201830873233e-18)
(0.564144059305055 -0.173173383034967 3.4778196708766e-17)
(0.56304842458089 -0.171976487245904 -1.76953232075396e-17)
(0.562605459559365 -0.170129221229954 4.59046423160058e-19)
(0.564074227339383 -0.16724892151267 -9.57991888704491e-18)
(0.568102099564321 -0.16286103239224 2.10294162805237e-17)
(0.57532224633273 -0.156281459793061 -1.10444149393255e-17)
(0.586486849495226 -0.14663414637612 2.27547843720258e-17)
(0.600643286101876 -0.133397290585789 -1.4844859728198e-20)
(0.616080192056456 -0.116397245633466 2.04855615491354e-18)
(0.631682226172779 -0.0954125173666236 3.08238384578783e-18)
(0.646714859263507 -0.0705765375012593 -6.63522342508762e-18)
(0.66108585645054 -0.0428339288741039 1.49482334313216e-17)
(0.677264303776568 -0.0151387072711862 4.0275162094506e-17)
(0.692194407149723 -0.00237187305063312 2.64275678185562e-17)
(0.701982941652727 -0.000570717497580905 -2.6344390400471e-17)
(0.707135438557041 -8.48244855616648e-05 -3.65956089887302e-20)
(0.710275811750559 8.34234180951682e-05 2.73444063239984e-20)
(0.712365654795086 0.00015106303569581 7.83637558167876e-20)
(0.713838978402032 0.000177643455196822 -5.64128389047722e-20)
(0.714919408817904 0.000186047590037512 5.26179071480006e-17)
(0.715735027819725 0.000185393738040838 2.64820725120265e-17)
(0.716364541830306 0.000180556804194157 7.17467806549801e-20)
(0.716859036607233 0.000173475324653906 -7.10998951710833e-20)
(0.717253035133951 0.000165591487338637 8.2408261395778e-21)
(0.717570666848059 0.000157184974668909 -2.06927086420089e-20)
(0.717829207217674 0.00014879838872897 4.79375489507644e-20)
(0.718041367049541 0.0001403735756491 -2.64421584575386e-17)
(0.718216644619477 0.000132164931942051 2.62978002608975e-17)
(0.718362274201727 0.000123988682494984 1.36673291579289e-19)
(0.718483820375275 0.00011602742224285 -4.09698081865007e-20)
(0.718585637462149 0.000108122817488802 2.63258172366653e-17)
(0.718671185837228 0.000100421687516361 1.14836014909783e-19)
(0.718743211038002 9.27321898166489e-05 -2.63391775361417e-17)
(0.718803897155391 8.51831821522626e-05 -1.35263738893337e-19)
(0.718855032075008 7.76201605163455e-05 2.63394326931573e-17)
(0.718898046245775 7.01697048647981e-05 8.68912205361428e-20)
(0.718934108096398 6.27045107600558e-05 -2.6354127756546e-17)
(0.718964205307391 5.53411020842757e-05 -8.06296581221958e-20)
(0.718989108819107 4.7930866128894e-05 2.63477967647328e-17)
(0.719009435702632 4.05959668135782e-05 6.44477091209608e-20)
(0.719025678071853 3.31695447928551e-05 1.29106617307159e-19)
(0.719038242787016 2.5832370846376e-05 -2.63475940580292e-17)
(0.719047418061597 1.838799482735e-05 -8.5028781538692e-20)
(0.719053428288784 1.10631598471941e-05 -2.64316015682343e-17)
(0.719056413978449 3.62881988001059e-06 -3.88681734457717e-21)
(0.719056458249889 -3.67626372903464e-06 -2.63331297768475e-17)
(0.719053565444595 -1.11067897368696e-05 -2.70969846655047e-20)
(0.719047649149116 -1.84330976845959e-05 -1.01463721355858e-19)
(0.719038574417628 -2.5868521730595e-05 2.64192370599396e-17)
(0.719026116927181 -3.31992085686286e-05 -2.62262943717702e-17)
(0.71900999562982 -4.06013584358807e-05 -4.96845479360529e-20)
(0.718989820717919 -4.79228054169697e-05 -2.10248272522184e-20)
(0.718965099340951 -5.53455452689477e-05 2.6280333550934e-17)
(0.718935182962305 -6.27315713686977e-05 2.63560756315495e-17)
(0.718899291209319 -7.02103848241485e-05 4.37625918757665e-20)
(0.718856506143622 -7.76430194430259e-05 2.63095357882937e-17)
(0.718805661012172 -8.51931693664056e-05 5.27061403882442e-17)
(0.718745307157131 -9.27341478019934e-05 2.63963545588944e-17)
(0.7186736769176 -0.000100444612877466 3.91187759357407e-20)
(0.718588588351559 -0.000108160180402442 2.29098726730661e-20)
(0.718487312090447 -0.000116089120521901 4.65633886736757e-20)
(0.718366434207325 -0.000124037536444679 -1.21357313665221e-19)
(0.71822162002069 -0.00013224063556773 2.63904707160028e-17)
(0.718047330402355 -0.00014046665620784 1.83190742538865e-20)
(0.717836393188508 -0.000148901708818102 5.27662171131822e-17)
(0.717579410123113 -0.000157260855879102 -7.90000248283455e-17)
(0.717263766710408 -0.0001656944351176 -1.48196515081961e-19)
(0.716872307846655 -0.00017363450310835 5.26331507733221e-17)
(0.716381122273518 -0.000180789535535723 2.64522366780421e-17)
(0.715756057227117 -0.000185688603124545 1.52661213205161e-19)
(0.71494660265743 -0.000186516896528353 -2.63708425623257e-17)
(0.713875073427221 -0.000178465301781084 -8.31947064635455e-20)
(0.712415010309124 -0.000152837357929412 -9.99805987893907e-20)
(0.710346304759672 -8.712140947898e-05 5.27644538508865e-17)
(0.707243732673517 7.60378540457862e-05 -1.30367608472712e-20)
(0.702172288931267 0.000543287046798094 5.27990936298116e-17)
(0.692498286093719 0.00221175953750725 -1.05340061897844e-16)
(0.677968139223258 0.0146956878121278 -3.66860269885033e-20)
(0.662603231989029 0.0423077086891837 -5.27417970929961e-17)
(0.648909831629902 0.070303276177886 -5.19661554196465e-17)
(0.634425045313328 0.0954989798493314 -1.01720043660555e-16)
(0.619194439781554 0.116865690926536 -9.82619359297204e-17)
(0.60396090748633 0.13421716901005 -1.6282148460022e-19)
(0.589867138630367 0.147748835439462 -9.06098049560936e-17)
(0.578660667063295 0.157615406519401 2.67134049102678e-19)
(0.571345078504604 0.164330662303245 8.93526169058068e-19)
(0.567205326167063 0.168785367171039 3.49724343745762e-19)
(0.56562135380944 0.171691905849854 1.15097891140367e-16)
(0.565963153300369 0.173531354460254 1.11712955653143e-19)
(0.566970175183355 0.174695822266012 -7.06174734560041e-17)
(0.566671533010563 0.175514748538729 1.0188758996177e-16)
(0.564996904108767 0.176288575749823 2.51949485897962e-19)
(0.562536482026464 0.177133182084203 -3.30155011770927e-17)
(0.55989837402727 0.178012167496058 1.18978201133689e-16)
(0.558330229672961 0.178755730364116 1.60185987795546e-18)
(0.560952609026756 0.179078030102678 4.65578262142661e-19)
(0.571350240501992 0.17875352078051 5.10162337088677e-17)
(0.58987394115825 0.177053642797361 -2.03055459620782e-19)
(0.61773115408283 0.172572767028679 7.36520482677415e-17)
(0.657136725412993 0.16214719769355 7.4497460630404e-17)
(0.70737232221699 0.138829872632512 -2.51183141229686e-17)
(0.752051442971987 0.0950402260784522 -1.45977959878813e-20)
(0.765344704447627 0.0466895106421212 -2.66477653523365e-17)
(0.756467467067182 0.0115202191869743 -3.21520586323266e-20)
(0.745568954250025 0.00101892173729614 -1.40612630036305e-20)
(0.747191705006477 -0.00128632181777063 -1.69468325925371e-21)
(0.757776693344953 -0.0121926537701533 5.69036071603705e-21)
(0.766138218602863 -0.0468974376820697 1.74263573554137e-18)
(0.752534133826152 -0.0945306380858148 2.94836450381315e-19)
(0.708071964383355 -0.137486490449537 1.6792030916321e-17)
(0.658078083879353 -0.160680724094744 1.89051136376016e-17)
(0.618582336042963 -0.171263601773467 -1.23140203701496e-18)
(0.590484578053076 -0.175876576926521 1.30452173294975e-17)
(0.571692584679629 -0.177659010566069 -3.46833487158523e-18)
(0.561017730157861 -0.178055798646578 2.49225515744052e-17)
(0.55801408631614 -0.177858895018928 -4.28060640188524e-17)
(0.559218565819229 -0.177169510178567 3.11750412429622e-17)
(0.561580874858383 -0.176280903555508 -1.53263199534407e-17)
(0.563821346220548 -0.175397628861452 1.68467868646801e-17)
(0.565317896820627 -0.174544979822181 5.32844407799112e-17)
(0.565492178412466 -0.173597277730626 2.59783449763402e-17)
(0.564444411623657 -0.172260267959779 3.77577964445095e-17)
(0.564042326851496 -0.170308722149014 5.91100593373256e-17)
(0.565516746698744 -0.167329588637771 -8.94734645525876e-18)
(0.569528593260514 -0.162835997771352 1.01266724779597e-17)
(0.576708095296418 -0.156165062316568 -5.46394588254305e-18)
(0.587730756412653 -0.146496488970765 -6.64509787659376e-18)
(0.601662259611106 -0.133251317420282 5.67341244025924e-19)
(0.616861790198144 -0.116240044013456 -1.04327796443319e-18)
(0.632237984672536 -0.0953083223510389 -9.49766961545806e-18)
(0.647075736441436 -0.0706578430150696 -1.08539255482432e-19)
(0.661302657206908 -0.0433506579885584 6.72355066683489e-19)
(0.676944044498974 -0.0165977695660748 2.75826423027168e-17)
(0.69127069396619 -0.00366407874760861 -8.49622114756256e-21)
(0.701006487709108 -0.00118737330359986 -4.41507715498976e-20)
(0.706400834069716 -0.000429822575727005 -1.03355376890404e-20)
(0.709729605192195 -0.000130060815578244 3.07222385202167e-20)
(0.711955492295101 1.0266083855674e-05 1.99538462580048e-19)
(0.71352829304691 8.09046885492959e-05 -2.72264564719925e-17)
(0.714683205973292 0.000117769593059496 -5.48191447906769e-17)
(0.715555801314658 0.000136341651150621 -2.7384975321275e-17)
(0.716229703329455 0.000144953096527628 1.64618500541561e-20)
(0.716759302448445 0.000147524749746643 -1.91766681033828e-20)
(0.717181413830979 0.000146724390378094 8.2383058602015e-20)
(0.717521795350122 0.000143587681264123 -2.7442765166918e-17)
(0.717798912938495 0.000139172928933835 2.73202823098456e-17)
(0.718026354946822 0.000133760109833891 -2.72397074753469e-17)
(0.718214283015409 0.000127849051556489 -6.34263048390681e-20)
(0.718370439747345 0.000121419233670387 -2.72511448239669e-17)
(0.718500786537918 0.000114782785197223 -3.37555478415446e-21)
(0.71860998573802 0.000107871295544348 -2.73269645456797e-17)
(0.718701742638945 0.000100907611982209 5.21899182231979e-21)
(0.718778997891296 9.37421680838402e-05 3.39542284662146e-20)
(0.718844094186734 8.65509518130749e-05 -1.34473070253962e-19)
(0.718898947506513 7.92073302180977e-05 8.19128556037006e-17)
(0.718945092583133 7.18665449717512e-05 2.39137296318354e-20)
(0.718983781251451 6.44204276865975e-05 2.73456091080261e-17)
(0.719016071007112 5.7007268645665e-05 1.02297827053373e-19)
(0.719042788583624 4.94827811853963e-05 -1.27162348244483e-19)
(0.719064594377877 4.1986873597471e-05 2.73070864530484e-17)
(0.719082019557233 3.43547925219425e-05 1.30743598673045e-19)
(0.71909549858912 2.67843596516772e-05 1.01943538387145e-19)
(0.719105343242817 1.90788189815928e-05 -2.74364073730697e-17)
(0.719111792153996 1.14829758093432e-05 2.70758622299963e-17)
(0.719114996683299 3.76352792318526e-06 2.75331921205572e-17)
(0.719115044425524 -3.82312498253747e-06 -2.71796551574751e-17)
(0.719111939491335 -1.15385072105223e-05 5.44774585551859e-17)
(0.71910559170468 -1.91361201512996e-05 -2.70307038382434e-20)
(0.719095855440281 -2.68318193732707e-05 2.73557618559093e-17)
(0.719082492400061 -3.43949073111792e-05 2.32532712380184e-19)
(0.719065197525679 -4.20004220014485e-05 -5.46680321826189e-17)
(0.719043552508087 -4.94820199153292e-05 2.73425755693996e-17)
(0.719017028155307 -5.70212955655175e-05 -5.46313439087311e-17)
(0.718984932371163 -6.44643377159109e-05 -3.02504443616234e-19)
(0.718946428593199 -7.19290054936864e-05 2.73267451656399e-17)
(0.718900530816949 -7.925194596981e-05 2.73712424312181e-17)
(0.718845987752397 -8.65865277710004e-05 2.74064041194447e-17)
(0.718781245791839 -9.37733147727746e-05 -2.7412057925168e-17)
(0.718704412764481 -0.000100967133282353 2.72268608963391e-17)
(0.718613148768698 -0.000107955893886588 2.74275493898836e-17)
(0.718504531092379 -0.000114902564108707 -2.73099701349547e-17)
(0.718374900612834 -0.000121536670132027 -2.74211188692552e-17)
(0.7182196162353 -0.000128010750925712 1.09274345626397e-16)
(0.718032748234287 -0.000133959642071039 6.96027512364141e-20)
(0.717806619256801 -0.000139407199885513 -2.74115368307682e-17)
(0.717531169326331 -0.0001438222876818 8.19790256593349e-17)
(0.71719291303174 -0.000147032050876535 -2.54587617492395e-20)
(0.716773519403583 -0.000147952313236745 2.7288727036023e-17)
(0.716247463798036 -0.00014554258230903 9.56777233162858e-20)
(0.715578318323641 -0.0001371147127397 4.00245140297182e-20)
(0.714712301305128 -0.000118911589187591 -1.66766950218458e-20)
(0.713566860557141 -8.27152144374931e-05 -1.13398881394363e-19)
(0.712008134833572 -1.36087178923016e-05 8.19482207144301e-17)
(0.70980455358819 0.000123710085087662 -5.05039841648033e-21)
(0.706515011607348 0.000415987621930975 5.4503480685812e-17)
(0.701199104053594 0.00114840822745367 5.47486891170181e-17)
(0.691566443965259 0.00348684123531236 1.70548943337976e-19)
(0.677370717013696 0.0161351588171036 -5.46541793443654e-17)
(0.661911800188068 0.0427316414467604 -5.46223315625308e-17)
(0.647813596938694 0.0701412468185943 -5.39239447406295e-17)
(0.633091692415932 0.094969650037549 5.2753318093368e-17)
(0.617785718073466 0.116098427930752 5.08592419783499e-17)
(0.602607462139586 0.133294546429418 -3.63525853100517e-19)
(0.588654779593938 0.146698752535571 8.28219142655848e-19)
(0.577583496900216 0.156492358160031 4.49148559939836e-17)
(0.570350155855982 0.163249161069391 -8.53353192977869e-17)
(0.566290653720438 0.16779174481133 -8.22466357404852e-17)
(0.564773108226309 0.170801748394218 -7.07235745129064e-19)
(0.565146846515866 0.17276442147223 3.77795719580491e-17)
(0.566176667678656 0.174096892889028 7.38282059433851e-17)
(0.565985501313344 0.175032522117108 -2.70678395257597e-19)
(0.564463676487169 0.17586781513003 3.46476161118511e-17)
(0.562182666467819 0.176744721983059 -3.20456848339193e-17)
(0.559780675293678 0.177625680840184 -6.24278553037768e-17)
(0.558534358469159 0.178299946102118 8.8425075993307e-17)
(0.561490756813623 0.178481965364101 -5.57671151710036e-17)
(0.57212594107995 0.178069738693061 -6.50563832473702e-19)
(0.590888042144772 0.176270233795499 2.58826099477097e-17)
(0.618958193759407 0.171636252111891 2.5115356093465e-17)