/*--------------------------------*- C++ -*----------------------------------*\
| =========                 |                                                 |
| \\      /  F ield         | OpenFOAM: The Open Source CFD Toolbox           |
|  \\    /   O peration     | Version:  2.4.0                                 |
|   \\  /    A nd           | Web:      www.OpenFOAM.org                      |
|    \\/     M anipulation  |                                                 |
\*---------------------------------------------------------------------------*/
FoamFile
{
    version     2.0;
    format      ascii;
    class       volTensorField;
    location    "0";
    object      velocityGradient;
}
// * * * * * * * * * * * * * * * * * * * * * * * * * * * * * * * * * * * * * //

dimensions      [0 0 -1 0 0 0 0];

internalField   nonuniform List<tensor> 
15600
(
(-1.73112747558051e-15 0 0 184.112858701993 0 0 3.80374689458608e-20 0 0)
(4.53551779382817 2.17697137109296e-17 0 183.965542482648 8.86252488141341e-16 0 7.78451242715914e-17 3.75293706002833e-34 0)
(23.1269911459064 0 0 183.114580622184 0 0 0 0 0)
(51.17240375004 0 0 180.751502089605 0 0 -1.55430371591369e-19 0 0)
(83.9896402623608 6.45017572437762e-15 0 176.347555965248 1.35982302485437e-14 0 8.07848657576199e-20 0 0)
(107.632972024162 0 0 169.899522012645 0 0 -1.3619868813525e-15 0 0)
(120.389624360828 0 0 162.258776686822 0 0 -8.34903463259483e-20 0 0)
(125.181026224724 0 6.67074869621399e-32 154.283808694491 0 8.26053873540485e-32 -1.34502522901894e-15 0 -7.19584283448442e-49)
(124.457704520177 -5.70613514079559e-17 0 146.548775209291 1.41107367931342e-18 0 3.65993974705026e-13 3.52639915054828e-33 0)
(119.633549270131 5.45202815884969e-17 0 139.410821575355 -1.34823540697912e-18 0 3.49088822326512e-13 -3.36936069576723e-33 0)
(112.008871509498 0 0 133.064486804249 0 0 -2.87478793986319e-19 0 0)
(104.580074047441 0 0 127.440088067904 0 0 5.44947448929539e-19 0 0)
(98.2806943536298 -7.54768977357849e-15 0 122.391430477195 -9.44366082771408e-15 0 -5.18869298090321e-19 0 0)
(92.958283393895 1.070378968616e-16 1.85681152505002e-34 117.809546571925 -6.84863103799571e-18 -1.18804810399146e-35 -4.96063046997036e-19 -9.56146903544827e-36 -1.65865048006174e-53)
(88.4868671094429 6.69283902650903e-15 -1.78176010014427e-34 113.60756973377 8.77199435901509e-15 1.1400277735173e-35 9.75825457436549e-16 7.51707674274027e-32 1.59160862887231e-53)
(84.7610951685943 -6.50942136101901e-15 0 109.715628284035 -8.46501846003893e-15 0 9.16594608749992e-19 0 0)
(81.3190272926563 1.0459768433345e-16 0 106.113944062121 -8.29728372438129e-18 0 9.03285935545504e-16 -8.51789148679311e-36 0)
(77.1380836525944 -1.00602743330727e-16 4.11059716054934e-32 102.872975248718 7.98038226357951e-18 5.50717806500614e-32 -8.69636460687841e-16 8.19256426588781e-36 -4.65693362109949e-49)
(72.1098873729238 1.01979689362825e-16 0 100.023423705841 -8.87046543470843e-18 0 -1.63038448290507e-18 -1.57125902075763e-35 0)
(66.2520729963505 -9.75514765427683e-17 1.73556848903618e-34 97.5839202478749 8.48528767035875e-18 -1.55624867495556e-35 3.11917823310776e-18 1.50303102964664e-35 2.60734321224961e-53)
(59.5234721275531 0 -1.65694161372283e-34 95.5745034773409 0 1.48574556816647e-35 -7.65312423946276e-16 0 -2.48922211766664e-53)
(51.8872197862002 0 -1.65130324874026e-34 94.0124884877428 0 1.52168554067033e-35 7.29892963660715e-16 0 -2.37401831176995e-53)
(43.9269869131416 -1.85420615796169e-16 1.57954501551607e-34 92.8427142095107 1.70358428105487e-17 -1.45555991171356e-35 2.0944932419949e-34 -2.61811655249362e-35 2.27085412322708e-53)
(35.9896358354096 1.56031956775842e-15 0 92.0129655663964 3.5307398204013e-15 0 -1.30664195172308e-18 2.51851385372242e-35 0)
(28.0102384517414 1.07555502994823e-15 0 91.5071389359374 3.52726696823113e-15 0 0 0 0)
(19.9305696330875 0 0 91.3147522615446 0 0 0 0 0)
(11.7061604563956 -8.66806669819944e-17 9.98091892450094e-32 91.4301005627268 7.26712218680796e-18 7.82443567829958e-31 4.52022414085479e-14 3.63341985281486e-33 3.9014423746806e-46)
(3.35958455692363 1.72981920449284e-16 -7.16113135634021e-33 91.8469027218245 -1.42756244835014e-17 -1.96497217775999e-31 4.61864489717581e-14 -3.62281380833212e-33 -9.80309794054585e-47)
(-8.35828464838261e-06 -8.66645005752383e-17 0 92.0564298506119 7.03866732324664e-18 0 -1.48583863876206e-22 0 0)
(-1.46799609929133e-15 0 0 92.0564293509308 0 0 -4.42814418881166e-30 0 0)
(7.33998049645599e-16 0 0 92.0564293509313 0 0 0 0 0)
(5.81658831794649e-16 0 0 92.0564293509324 0 0 5.23187282640244e-14 0 0)
(-1.3156568814403e-15 8.66644997897599e-17 0 92.0564293509389 -5.93887552167687e-18 0 5.30521570960555e-14 0 0)
(2.46512552524715e-15 -8.66644997905378e-17 0 92.0564293509254 5.93887552173019e-18 0 0 0 0)
(1.25638307665832e-13 0 0 92.0564293509301 0 0 0 0 0)
(-1.2810343319335e-13 0 0 92.0564293509371 0 0 0 0 0)
(5.26262752577032e-16 0 0 92.0564293509274 0 0 0 0 0)
(9.41733346715075e-16 0 -7.51694711595385e-35 92.0564293509318 0 4.1972360990745e-36 6.08599503142181e-19 0 -5.0873264202416e-54)
(-4.70866673357559e-16 0 -3.84115997625249e-32 92.0564293509366 0 2.04710651554738e-33 -5.04257243718099e-14 0 -1.13272504632183e-48)
(-2.56469997762031e-13 0 3.84867692336851e-32 92.0564293509265 0 -2.05130375164649e-33 -5.09550567721231e-14 0 1.13273013364827e-48)
(2.56206866385742e-13 -8.66644997897601e-17 0 92.0564293509374 4.1792087004735e-18 0 6.08599503133362e-19 0 0)
(7.33998049651229e-16 8.66644997904186e-17 0 92.0564293509241 -4.17920870050525e-18 0 6.08599503137986e-19 0 0)
(0 4.33322498944141e-17 0 92.056429350935 -1.8696459975662e-18 0 -6.08599503126809e-19 0 0)
(-1.73112747557831e-15 -4.33322498948549e-17 -7.51694711594984e-35 92.0564293509292 1.86964599758522e-18 3.05253534473521e-36 6.08599503133001e-19 0 -5.08732642023889e-54)
(1.9942588518745e-15 0 7.51694711598098e-35 92.0564293509307 0 -3.05253534474786e-36 -6.08599503131093e-19 0 5.08732642025996e-54)
(-9.97129425933615e-16 -4.33322498948769e-17 0 92.0564293509311 1.53970846860937e-18 0 0 0 0)
(5.81658831794722e-16 4.33322498948832e-17 1.92433846168433e-32 92.0564293509328 -1.53970846860959e-18 -6.34927351709512e-34 5.25159214291442e-14 0 -3.62762281458696e-49)
(-1.31565688144022e-15 0 -1.9243384616841e-32 92.0564293509329 0 6.34927351687046e-34 5.28546596311873e-14 0 3.62762281445835e-49)
(0 0 3.75847355797705e-35 92.0564293509379 0 -1.04930902472068e-36 6.08599503133362e-19 0 1.27183160506048e-54)
(1.28629695945448e-13 -4.3332249894879e-17 -3.75847355797706e-35 92.0564293509264 1.09979176330866e-18 1.04930902472068e-36 -3.04299751566682e-19 0 -1.27183160506048e-54)
(-1.25430572371539e-13 4.33322498952113e-17 0 92.0564293509309 -1.09979176331709e-18 0 3.04299751569015e-19 0 0)
(-1.4679960992752e-15 0 0 92.0564293509311 0 0 -6.08599503122277e-19 0 0)
(-7.33998049645366e-16 0 9.47588387921445e-64 92.0564293509372 0 8.7461039571852e-47 5.06022699384975e-14 0 4.81713281487145e-62)
(4.70866673359234e-16 0 1.87923677899523e-35 92.0564293509302 0 -2.86175188561975e-37 5.07774461563018e-14 0 -3.17957901266246e-55)
(-2.56206866385739e-13 2.16661249474394e-17 -1.87923677898855e-35 92.0564293509254 -2.7494794084069e-19 2.86175188560957e-37 1.52149875783338e-19 0 3.17957901265115e-55)
(2.56206866385741e-13 -3.24991874211597e-17 0 92.0564293509363 3.84927117165898e-19 0 0 0 0)
(7.89394128864157e-16 1.08330624737194e-17 0 92.0564293509318 -1.099791763252e-19 0 -8.85628837762228e-30 0 0)
(-2.2573902281554e-15 0 0 92.0564293509334 0 0 7.60749378916665e-20 0 0)
(1.7311274755894e-15 -2.70826561844571e-18 -4.69809194749862e-36 92.0564293509318 6.87369852044228e-21 1.19239661901983e-38 -1.14112406838169e-19 1.14556406853234e-38 1.98723688291855e-56)
(-1.20486472299617e-15 2.70826561841424e-18 4.69809194744403e-36 92.0564293509323 -6.87369852036241e-21 -1.19239661900597e-38 3.80374689456143e-20 -1.14556406851903e-38 -1.98723688289546e-56)
(2.46512552521073e-15 2.70826561841426e-18 0 92.0564293509343 6.87369852036257e-21 0 0 0 0)
(-2.99138827781849e-15 -2.70826561844568e-18 0 92.0564293509321 -6.8736985204423e-21 0 -7.60749378921127e-20 0 0)
(2.2573902281554e-15 0 0 92.0564293509334 0 0 7.60749378916665e-20 0 0)
(-7.89394128864209e-16 0 0 92.0564293509379 0 0 -8.85628837762287e-30 0 0)
(0 -2.16661249474398e-17 0 92.0564293509234 -2.74947940813626e-19 0 0 0 0)
(0 2.16661249474383e-17 -1.8792367789884e-35 92.0564293509292 2.74947940813607e-19 -2.86175188560934e-37 1.52149875783326e-19 0 -3.17957901265089e-55)
(9.97129425937181e-16 0 1.87923677899511e-35 92.0564293509353 0 2.86175188561956e-37 -1.5214987578387e-19 0 3.17957901266225e-55)
(-9.97129425933288e-16 0 0 92.0564293509244 0 0 0 0 0)
(0 0 0 92.0564293509345 0 0 0 0 0)
(-9.41733346722368e-16 0 0 92.0564293509326 0 0 0 0 0)
(-5.26262752576145e-16 0 0 92.056429350932 0 0 0 0 0)
(0 0 0 92.0564293509324 0 0 0 0 0)
(9.97129425933638e-16 -4.33322498948769e-17 1.92433846168413e-32 92.0564293509324 -1.42972929228788e-18 6.34927351711526e-34 -5.0853043334938e-14 7.86703661677254e-34 -3.49366607500355e-49)
(0 4.33322498948769e-17 -1.92433846168413e-32 92.0564293509314 1.42972929228788e-18 -6.34927351711614e-34 -1.01392543849388e-13 -7.86703661677254e-34 3.49366607500403e-49)
(-4.70866673357648e-16 4.33322498948813e-17 -7.51694711595441e-35 92.0564293509331 1.64968764493603e-18 -2.86175188569943e-36 -5.05141493050325e-14 -2.93264401542594e-36 5.08732642024226e-54)
(9.41733346718485e-16 -8.66644997900675e-17 7.51694711598065e-35 92.0564293509318 -3.40935446620549e-18 2.86175188570942e-36 1.21719900627106e-18 0 -5.08732642026002e-54)
(1.73112747557831e-15 4.33322498948548e-17 0 92.0564293509289 1.75966682125639e-18 0 -6.08599503132999e-19 2.93264401542398e-36 0)
(-1.73112747556059e-15 0 7.5169471158729e-35 92.0564293509294 0 3.4341022627797e-36 6.08599503126772e-19 0 5.08732642018682e-54)
(-7.33998049651249e-16 8.66644997904239e-17 -7.51694711601188e-35 92.0564293509303 4.1792087005055e-18 -3.43410226284319e-36 -6.08599503138023e-19 0 -5.08732642028087e-54)
(2.63131376288062e-16 -8.66644997897602e-17 3.8486769233685e-32 92.0564293509369 -4.1792087004735e-18 1.95362262066939e-33 -5.09408596686518e-14 0 -1.07457345214058e-48)
(4.70866673357526e-16 -8.66644997897541e-17 -3.84867692336817e-32 92.0564293509301 -4.6191254058871e-18 -1.95362262064683e-33 -5.04393128757741e-14 5.86528803085097e-36 1.07457345212816e-48)
(2.63131376288066e-16 8.66644997897547e-17 0 92.0564293509308 4.61912540588713e-18 0 6.08599503133315e-19 -5.86528803085101e-36 0)
(-2.93599219858257e-15 0 7.51694711595404e-35 92.0564293509276 0 4.38801955801876e-36 -6.08599503133375e-19 0 -5.08732642024202e-54)
(1.20486472300512e-15 0 -7.51694711596608e-35 92.0564293509382 0 -4.38801955802579e-36 1.2171990062687e-18 0 5.08732642025016e-54)
(1.73112747558584e-15 8.66644997900842e-17 0 92.056429350926 5.4989588163917e-18 0 -6.08599503135646e-19 0 0)
(-9.97129425919357e-16 1.21322309858813e-30 0 92.0564293509371 2.19958352767797e-19 0 1.21719900624923e-18 1.17305760615343e-35 0)
(-7.33998049652199e-16 -1.21322309861638e-30 0 92.0564293509309 2.19958352644996e-19 0 -2.43439801255516e-18 -2.34611521236151e-35 0)
(0 -8.66644997897595e-17 0 92.0564293509263 -5.9388755217851e-18 0 1.21719900626673e-18 1.1730576061703e-35 0)
(1.46799609929123e-15 0 -1.50338942319084e-34 92.0564293509366 0 -1.10654406247126e-35 1.21719900626671e-18 0 -2.03493056809673e-53)
(-1.46799609929114e-15 8.66644997897519e-17 3.00677884638144e-34 92.0564293509305 6.59875057974314e-18 2.25124481675079e-35 -2.43439801253325e-18 -1.1730576061702e-35 0)
(3.19912357487035e-15 2.42644619721094e-30 -1.5033894231907e-34 92.0564293509308 2.19958352652859e-19 -1.1447007542796e-35 1.21719900626663e-18 1.1730576061702e-35 2.03493056809661e-53)
(8.35828464791285e-06 3.1504644860162e-25 0 92.0564298506129 2.19958353837032e-19 0 0 0 0)
(-3.35958455693153 -1.02679710781411e-16 0 91.8469027218205 4.35442683167472e-16 0 0 0 0)
(-11.7061604564043 -2.24750313746155e-16 -5.39481204798872e-34 91.430100562737 1.76190628025846e-15 3.04348243963225e-33 1.54839647826798e-16 3.00798848892671e-33 5.23841117004983e-51)
(-19.9305696330898 0 3.02068107293254e-34 91.3147522615188 0 2.64810538083635e-35 2.47238916587499e-18 0 0)
(-28.0102384517398 -9.00152855642652e-16 -1.53968635196494e-34 91.5071389359051 3.54318059282563e-15 -1.36817414301499e-35 1.95163976442065e-34 2.43954970552581e-35 -2.11597207249397e-53)
(-35.9896358354105 -1.56303267783484e-15 0 92.0129655663681 3.53069883560466e-15 0 -2.61328390344574e-18 -2.51851385372202e-35 0)
(-43.9269869131632 0 0 92.8427142095307 0 0 1.35831729372213e-18 0 0)
(-51.8872197862234 0 0 94.0124884877772 0 0 0 0 0)
(-59.5234721275611 4.57124061668259e-15 0 95.5745034773424 -7.37166530064255e-15 0 0 0 0)
(-66.2520729963188 0 0 97.5839202478383 0 0 -7.98509627675168e-16 0 0)
(-72.1098873728987 9.92616559970921e-17 0 100.023423705789 8.28751885693434e-18 0 -8.34756855247089e-16 0 0)
(-77.1380836525923 -1.03510304176681e-16 0 102.872975248713 -8.64224547872128e-18 0 0 0 0)
(-81.319027292669 -6.24507991860305e-15 0 106.113944062133 8.18701970185978e-15 0 0 0 0)
(-84.7610951685955 0 0 109.715628284036 0 0 0 0 0)
(-88.486867104656 1.02711476773011e-16 0 113.607569734062 6.57181267949856e-18 0 9.74873432577104e-16 0 0)
(-92.9582833957366 -1.07037896862866e-16 4.95363687665584e-32 117.809546571713 -6.84863103803683e-18 -6.30734079732813e-32 1.01593712026109e-15 0 -5.43506589312601e-49)
(-98.2806943582645 0 -5.23726185609352e-32 122.391430476953 0 6.55285605478769e-32 1.06264432250736e-15 0 5.68494033597225e-49)
(-104.580074052678 -8.08441706324072e-15 -5.5729483427025e-32 127.440088067893 9.83131692443413e-15 6.82343910677764e-32 1.11659732287977e-15 8.60436965670547e-32 5.97066302596315e-49)
(-112.008871497569 2.11097160927631e-18 0 133.06448680471 5.62475470183491e-19 0 -1.17808809770592e-15 2.77053451529108e-36 0)
(-119.633549276196 2.25466985482381e-18 -6.37513021681891e-32 139.410821574975 6.15226406937378e-19 7.46503804752536e-32 -1.24361562682625e-15 0 -6.65310159725714e-49)
(-124.457704528135 5.70613514098287e-17 0 146.548775209245 1.41107367940384e-18 0 0 0 0)
(-125.181026209427 0 0 154.283808694595 0 0 4.10481651950029e-20 0 0)
(-120.389624368046 1.32089658349413e-17 0 162.258776686601 -7.48438952500092e-20 0 -8.34903463277249e-20 -5.02891193722703e-38 0)
(-107.632972027723 -8.27907225353372e-15 0 169.89952201279 1.31047208415726e-14 0 4.15683467530844e-20 5.00761020625833e-38 0)
(-83.9896402624712 -6.45017572438587e-15 0 176.347555965496 1.35982302485626e-14 0 0 0 0)
(-51.1724037444795 0 6.81729204208288e-33 180.751502089617 0 -2.4172232160198e-32 -6.36642802026107e-16 0 8.51478775208801e-50)
(-23.1269911472266 -1.08889476325492e-17 0 183.114580622174 1.09828850055527e-19 0 0 0 0)
(-4.53551779417184 5.43667827548327e-18 0 183.96554248268 -8.19674663312404e-20 0 0 0 0)
(0 5.41653123685959e-18 0 184.11285870199 -2.74947940803967e-20 0 0 0 0)
(-1.67037400799645e-15 -5.41789926841319e-18 0 0 -2.75017383319601e-20 0 0 0 0)
(8.34996116391932e-16 -3.65091422804235e-17 0 -2.67198757245418e-14 -1.71004904681077e-15 0 0 -7.24243682727273e-34 0)
(0 0 1.9082429766601e-35 0 0 2.73332593886763e-37 1.47271375445354e-19 0 3.07762968664607e-55)
(6.82440852165805e-15 0 -1.94295574068354e-35 -2.72976340866322e-14 0 -2.78304775075195e-37 -4.36172875799047e-13 0 -3.13361471285645e-55)
(0 -6.19653711027925e-15 1.1005928656614e-29 0 -1.31149981429205e-14 2.33011014461501e-29 -4.24020002416279e-13 0 -5.81254247887439e-44)
(1.45930213791713e-14 -2.52801362932555e-17 -5.70158505842973e-36 0 -3.23700061957759e-19 -3.23059988350802e-38 1.31333184319511e-15 0 2.09399587312557e-56)
(0 0 1.16951687163074e-35 -2.93042016321778e-14 0 9.75688732356383e-39 0 0 -4.2049467131326e-56)
(0 9.22883802390706e-15 -6.43055185028139e-32 0 1.14845690693677e-14 -7.96236841892337e-32 1.29655503471134e-15 0 6.9361056610625e-49)
(2.78786675741963e-14 0 1.012771937744e-31 -2.78786675741963e-14 0 -2.50448997305885e-33 -3.54203522409564e-13 0 -6.25579511528799e-48)
(0 5.67290073841831e-17 -9.6769103092522e-32 2.66377212482706e-14 -1.9618729193873e-18 2.39300912046381e-33 -3.35108669913903e-13 -2.82037844213265e-36 5.97733467798768e-48)
(1.26118246334832e-14 -5.3717529821162e-17 0 0 1.85772626583804e-18 0 5.54230574713615e-19 2.67065774738841e-36 0)
(-2.39088944542673e-14 -7.71100306061349e-15 0 0 -9.48795520582556e-15 0 -5.25341919161147e-19 0 0)
(1.13830772553533e-14 7.38482570348818e-15 0 2.27661545107067e-14 9.09820658948492e-15 0 5.00232887198145e-19 0 0)
(1.08832905409854e-14 -2.10456026916409e-16 4.75651361658962e-32 0 1.28328337498891e-17 6.0858574773848e-32 9.80452687896392e-16 -9.21850566275573e-36 5.24011378658755e-49)
(1.04438014637558e-14 -1.30807743787681e-14 0 0 -1.69082947673705e-14 0 -1.8817200879521e-15 1.76924878687677e-35 0)
(2.01108479499482e-14 6.37841359892683e-15 0 0 8.15484728163341e-15 0 8.83777497800458e-19 -8.51727540541387e-36 0)
(9.69637234370899e-15 -1.04550124540192e-16 0 0 8.29351101071281e-18 0 -8.7352573115933e-16 8.21314684396691e-36 0)
(9.32644047699832e-15 1.00561372730236e-16 -3.99960224411824e-32 -1.86528809539966e-14 -7.97710051191745e-18 -5.3073814937388e-32 8.41838762977495e-16 -7.89980236462369e-36 4.48996958839436e-49)
(0 -1.01944063533765e-16 3.44262742245231e-34 0 8.86736660524752e-18 -2.87430623582163e-35 -1.57221990134836e-18 0 5.25691907494507e-53)
(0 2.97568277330506e-16 0 1.71129543585413e-14 -2.64204550011197e-17 0 1.50406825416867e-18 2.89904723330872e-35 0)
(8.16960271162826e-15 -1.90998425090886e-16 0 0 1.71264371208417e-17 0 7.3382818106989e-16 -2.76796906509088e-35 0)
(0 0 0 0 0 0 -7.01308778283599e-16 0 0)
(7.45444986445914e-15 0 -2.24896696700394e-32 -1.49088997289183e-14 0 -4.79290082942533e-32 -6.7221084031656e-16 0 3.58918705322381e-49)
(0 -5.42684209650745e-18 0 0 8.19789873032741e-20 0 1.26061181432113e-18 0 0)
(-3.47355949764132e-15 -1.89370678933062e-15 0 0 -6.8219950264903e-15 0 -3.12620354787719e-16 1.20513304115212e-32 0)
(0 -1.73419958322114e-16 0 -1.35712999595606e-14 1.54101971840533e-17 0 3.06547039125621e-16 0 0)
(0 -8.67033243635623e-17 -9.63072612691013e-32 -1.33851858651116e-14 7.26902173329603e-18 -7.54990574368335e-31 -4.4206959762281e-14 3.62668145492824e-33 -3.76455547777626e-46)
(-1.25119653460244e-15 1.88523205340082e-16 6.90986505268574e-33 -1.33460963690927e-14 4.12559679402244e-16 1.89602618706084e-31 -4.3827941198029e-14 -3.61609025718748e-33 9.45913159482272e-47)
(1.92426998827516e-15 -3.15129581808721e-25 0 1.3362992136161e-14 2.20013907931471e-19 0 2.86738703788397e-22 0 0)
(0 -8.66863882946157e-17 0 1.33629920639861e-14 6.82043110634359e-18 0 4.27273962258833e-30 0 0)
(0 0 0 0 0 0 0 0 0)
(3.34074801599624e-15 -8.66863882946132e-17 0 0 6.16038938632962e-18 0 -5.12026435140817e-14 3.52903194491453e-33 0)
(-1.67037400799811e-15 8.66863882946125e-17 -1.50376912822301e-34 0 -6.16038938632957e-18 1.03049088009303e-35 -5.04691036047982e-14 -3.5290319449145e-33 -1.96351521016216e-53)
(0 -8.66863882953855e-17 2.0307459709763e-48 0 5.72036157321737e-18 -3.81663288886805e-37 -2.34896344876838e-18 1.13188945521943e-35 3.9270304203595e-53)
(0 8.66863882933652e-17 1.50376912820142e-34 0 -5.72036157308406e-18 -9.92324551190454e-36 1.17448172435682e-18 -1.13188945519305e-35 -1.96351521013399e-53)
(0 8.66863882949412e-17 -1.50376912822876e-34 1.33629920640359e-14 -5.28033375980922e-18 9.15991893413394e-36 1.17448172437816e-18 1.13188945521362e-35 -1.96351521016966e-53)
(9.22046452416429e-16 5.5866441462964e-30 1.50376912822543e-34 0 2.20013906745862e-19 -9.1599189341137e-36 -1.17448172437556e-18 -1.13188945521112e-35 1.96351521016532e-53)
(-1.67037400799796e-15 -8.6686388294608e-17 0 1.33629920639837e-14 5.0603198530431e-18 0 -8.54547924517513e-30 0 0)
(0 0 0 0 0 0 4.91749913241674e-14 0 0)
(-2.59242046041289e-15 0 0 0 0 0 4.86466832461102e-14 0 0)
(1.67037400799826e-15 0 0 0 0 0 0 0 0)
(3.3407480160216e-15 -8.66863882952664e-17 0 1.33629920640864e-14 3.9602503198968e-18 0 -5.87240862191297e-19 5.65944727608946e-36 0)
(-1.67037400798034e-15 8.66863882936857e-17 -7.51884564103488e-35 -1.33629920638427e-14 -3.96025031982459e-18 3.24413795583252e-36 9.05511564157802e-35 -5.65944727598626e-36 4.90878802535318e-54)
(1.05567637305434e-15 0 7.5188456411115e-35 0 0 -3.24413795586558e-36 5.87240862186573e-19 0 -4.90878802540321e-54)
(6.14697634945507e-16 -4.3343194147461e-17 0 0 1.6501042999326e-18 0 5.87240862184675e-19 -2.82972363803341e-36 0)
(9.22046452414947e-16 -1.03155877389954e-30 0 1.33629920639849e-14 -1.1000695337038e-19 0 -1.17448172437367e-18 5.65944727604649e-36 0)
(-9.22046452414932e-16 8.66863882946113e-17 1.92482448412549e-32 0 -2.97018773984896e-18 -6.35087712771521e-34 -5.10053836129523e-14 -8.19643804885633e-34 -3.62738319935656e-49)
(0 -4.33431941473066e-17 -1.92482448412552e-32 0 1.43009039329273e-18 6.35087712793138e-34 -5.06663635059267e-14 8.16814081247626e-34 3.62738319948031e-49)
(0 0 0 1.3362992063985e-14 0 0 -5.8724086218684e-19 0 0)
(0 0 0 0 0 0 0 0 0)
(0 0 -3.75942282058636e-35 -1.33629920640877e-14 0 8.5874240008276e-37 2.93620431095677e-19 0 -1.22719700636079e-54)
(9.22046452404932e-16 0 3.75942282051661e-35 -1.33629920638398e-14 0 -8.58742400066828e-37 -2.93620431094502e-19 0 1.22719700633802e-54)
(-1.67037400799755e-15 0 -9.14333020412127e-64 0 0 -8.43916171825708e-47 -4.89988886314796e-14 0 -4.64807679419654e-62)
(7.4832755558584e-16 0 0 1.33629920640326e-14 0 0 -4.88227859387974e-14 0 0)
(1.67037400799807e-15 -2.16715970736514e-17 1.87971141027867e-35 0 2.75017383321499e-19 -2.38539555574759e-37 1.46810215546705e-19 -3.53715454752896e-37 3.0679925158783e-55)
(-3.34074801599658e-15 4.33431941473086e-17 -3.75942282055784e-35 0 -4.95031289983987e-19 4.29371200039152e-37 -4.52755782083766e-35 7.07430909505885e-37 -6.13598503175742e-55)
(3.34074801599607e-15 -3.25073956104771e-17 1.87971141027863e-35 1.33629920639843e-14 3.02519121664088e-19 -1.90831644464333e-37 8.54551637114964e-30 -5.30573182129333e-37 3.06799251587824e-55)
(-1.67037400799811e-15 5.41789926841342e-18 0 1.33629920639848e-14 -5.50034766721344e-20 0 -1.46810215546709e-19 1.76857727376452e-37 0)
(0 8.1268489026665e-18 -4.69927852572398e-36 -1.33629920640618e-14 -3.43771729153862e-20 1.19269777833365e-38 3.67025538868886e-20 1.10536079610919e-38 -1.91749532243503e-56)
(0 -2.70894963419099e-18 4.6992785256699e-36 0 6.87543458560923e-21 -1.19269777831992e-38 -3.67025538864662e-20 -1.10536079609647e-38 1.91749532241296e-56)
(1.67037400798851e-15 0 -4.69927852566996e-36 0 0 -1.19269777831992e-38 3.67025538864662e-20 0 -1.91749532241296e-56)
(0 5.4178992684443e-18 4.69927852572401e-36 0 2.75017383296977e-20 1.19269777833364e-38 -3.67025538868883e-20 0 1.91749532243501e-56)
(1.67037400799811e-15 5.41789926841344e-18 0 1.33629920639849e-14 5.50034766721346e-20 0 -1.46810215546709e-19 -1.76857727376452e-37 0)
(-1.67037400799814e-15 -2.16715970736529e-17 0 0 -1.92512168318649e-19 0 1.46810215555257e-19 1.76857727376455e-37 0)
(0 3.2507395610479e-17 0 1.33629920639853e-14 3.85024336636116e-19 0 0 0 0)
(0 -2.16715970736517e-17 0 0 -2.75017383319129e-19 0 0 0 0)
(-2.41870156358991e-15 -2.16715970737304e-17 0 1.33629920640326e-14 -3.85024336641039e-19 0 0 0 0)
(1.67037400799748e-15 4.33431941472895e-17 0 1.33629920639799e-14 8.25052149964208e-19 0 0 0 0)
(7.48327555575095e-16 -6.50147912202556e-17 0 0 -1.4300903932773e-18 0 0 0 0)
(0 4.33431941476351e-17 0 0 9.90062579975431e-19 0 0 0 0)
(1.6703740079981e-15 0 0 1.33629920639848e-14 0 0 0 0 0)
(-1.67037400799825e-15 0 0 1.3362992063986e-14 0 0 -5.87240862186883e-19 0 0)
(0 0 9.14333020412391e-64 0 0 8.43916171825741e-47 4.8747481139322e-14 0 -4.64807679419672e-62)
(0 -4.33431941473054e-17 3.84964896825094e-32 1.3362992063985e-14 -1.54009734660614e-18 1.367881227493e-33 9.78101025051402e-14 8.45752151878968e-34 -7.51178809713842e-49)
(-1.67037400799822e-15 8.66863882946172e-17 -3.84213012261006e-32 0 3.19020164653538e-18 -1.36501875282618e-33 4.90857654961015e-14 -8.48581875517043e-34 7.51173900925862e-49)
(0 -4.3343194147461e-17 -1.50376912822838e-34 0 -1.65010429993493e-18 -5.91578097825715e-36 1.17448172437786e-18 2.82972363803333e-36 0)
(1.67037400799725e-15 0 0 0 0 -1.90831644441595e-37 9.05511564166967e-35 0 0)
(-1.67037400798023e-15 0 7.51884564103439e-35 0 0 3.24413795574584e-36 -5.8724086218055e-19 0 4.90878802535286e-54)
(-1.670374008011e-15 0 0 -1.3362992064088e-14 0 0 -5.87240862191367e-19 0 0)
(1.67037400799816e-15 0 0 0 0 0 4.866001703384e-14 0 0)
(-2.41870156358129e-15 0 5.92195210660731e-59 1.3362992063985e-14 0 -2.16042539987401e-44 4.91628320181638e-14 0 1.18990765931443e-59)
(3.34074801599597e-15 0 0 0 0 0 -5.87240862186791e-19 0 0)
(1.67037400799804e-15 0 0 1.33629920639843e-14 0 0 0 0 0)
(-2.5924204604172e-15 0 0 -1.33629920640062e-14 0 0 -1.17448172437555e-18 0 0)
(0 0 0 0 0 0 1.17448172437809e-18 0 0)
(0 0 -1.50376912820152e-34 0 0 -9.92324551171582e-36 1.1744817243569e-18 0 -1.96351521013413e-53)
(1.67037400801305e-15 8.66863882953857e-17 1.50376912823645e-34 0 5.9403754797464e-18 9.92324551194627e-36 -1.17448172438418e-18 0 1.96351521017973e-53)
(0 0 0 1.3362992063985e-14 2.20013906750258e-19 0 0 0 0)
(-3.34074801599636e-15 -8.66863882946139e-17 0 -1.33629920639855e-14 -6.16038938644378e-18 0 0 0 0)
(1.67037400799815e-15 -8.66863882946123e-17 0 1.33629920639852e-14 -6.60041719970681e-18 0 -1.1744817243737e-18 1.13188945520932e-35 0)
(0 2.32970015228989e-30 0 0 -2.20013906636308e-19 0 2.34896344874725e-18 -2.2637789104185e-35 0)
(-2.53895971255048e-16 1.73372777840776e-16 0 0 1.38608761941883e-17 0 -1.17448173071734e-18 1.13188946132291e-35 0)
(-4.17065511534119e-16 -7.10171525653714e-17 0 0 -4.33978684799745e-16 0 0 0 0)
(0 4.32846636182086e-16 3.76200239332763e-34 1.33851858651134e-14 -3.39979320695475e-15 -2.94918193112632e-33 0 -5.80489903763128e-33 -5.03494731812708e-51)
(0 -5.62010106340247e-16 0 -1.35712999595633e-14 3.4108327507399e-15 0 0 0 0)
(0 1.89370678933123e-15 0 0 -6.82199502649029e-15 0 -3.12620354787719e-16 1.20513304115212e-32 0)
(-7.1714805436923e-15 1.33326984632562e-15 0 0 -3.422170013882e-15 0 6.45433248932307e-16 0 0)
(0 0 0 0 0 0 1.31035251523626e-18 0 0)
(-7.79231975870514e-15 0 0 0 0 0 -1.36974370758489e-18 0 0)
(-8.16960271162865e-15 -4.40891699862295e-15 -1.65664725939865e-34 0 7.10989929813591e-15 -1.4854816266683e-35 -1.43606297665347e-18 0 2.40083045899548e-53)
(-8.55647717927108e-15 0 1.73509838476841e-34 0 0 1.55582714208632e-35 7.71587014388566e-16 0 -2.51452264679324e-53)
(-8.94418432767056e-15 9.92269796923621e-17 0 0 8.28462367526384e-18 0 1.5722199013484e-18 1.5152037623705e-35 0)
(0 -1.03467737907647e-16 -3.94757109363756e-32 0 -8.63869155095995e-18 5.31405120996779e-32 8.37740229564717e-16 -1.57996047292467e-35 4.49051774729887e-49)
(9.69637234370824e-15 1.19173028925381e-14 0 0 -1.58015562835616e-14 0 0 0 0)
(0 1.05244352749457e-16 0 0 7.8543317053064e-18 0 0 0 0)
(-1.04438014635034e-14 1.0265895879042e-16 0 0 6.56845240918561e-18 0 -9.39942131715308e-16 0 0)
(2.17665810821942e-14 -1.06978984526565e-16 -4.77595330062307e-32 -4.35331621643883e-14 -6.84486163628734e-18 6.08110078498327e-32 -9.79496148698737e-16 0 5.24011378664131e-49)
(0 0 5.04915328181239e-32 2.27661545110836e-14 0 -6.31749482141698e-32 -1.02447695299876e-15 0 -5.48075233643032e-49)
(1.19544472273799e-14 3.15145660177435e-17 2.18676230024802e-34 -2.39088944547597e-14 8.12616160262108e-18 5.63865732065924e-35 0 0 0)
(1.26118246329593e-14 -5.37175298190014e-17 9.31850600485058e-35 0 -1.85772626581801e-18 3.22264136525323e-36 1.13450998639165e-15 2.67065774727748e-36 -4.63285269050158e-54)
(-2.66377212488073e-14 2.25284530575094e-18 6.13502588315822e-32 0 6.14728546556956e-19 -7.19574856211246e-32 2.39798021388494e-15 -2.82037844218947e-36 6.41284705118172e-49)
(1.39393337875672e-14 2.96788164331879e-17 0 0 1.02060550988771e-18 0 0 0 0)
(1.44057274236496e-14 2.14820043831219e-17 0 0 3.76613953513589e-19 0 0 0 0)
(-1.46521008164116e-14 2.00837040868242e-17 -6.15942271683611e-32 0 -4.86459965352828e-20 8.37929493967889e-32 1.31868907347704e-15 0 7.05472992762693e-49)
(1.45930213793176e-14 7.95699760370593e-15 0 0 -1.26356557348894e-14 0 1.31337192413858e-15 0 0)
(2.83683250666743e-14 6.19732842084199e-15 0 0 -1.31149343554404e-14 0 -1.27657462800034e-15 0 0)
(6.82440852152657e-15 2.28830048358044e-17 -6.57693563516267e-33 2.72976340861063e-14 -3.64135875195871e-19 2.33199948153107e-32 6.14196766937392e-16 0 -8.21458295271216e-50)
(-3.3512419657154e-15 0 0 0 0 0 0 0 0)
(-8.34996116392e-16 0 0 -2.6719875724544e-14 0 0 0 0 0)
(1.67037400799649e-15 0 0 2.67259841279438e-14 0 0 0 0 0)
(0 0 0 -2.57882829848926e-14 0 0 0 0 0)
(-2.41709182989038e-15 4.02866640178711e-17 0 0 1.64964401263298e-15 0 -7.25127548967115e-17 3.49415495075216e-34 0)
(-3.23353338562942e-15 -4.09948649971243e-16 0 2.58682670850353e-14 -3.28365918354694e-15 0 0 0 0)
(-6.58382163677053e-15 1.81368214950677e-15 0 0 6.48321046233729e-15 0 4.20054128114183e-13 0 0)
(1.36803463081033e-14 -5.95039777317964e-15 -1.06150021272919e-29 0 -1.26534712119274e-14 -2.24734549110936e-29 4.08498437272545e-13 9.49264716006379e-32 5.60608311240937e-44)
(1.40706134370926e-14 0 0 2.81412268741852e-14 0 0 -1.26635520933834e-15 0 0)
(0 6.87877874621435e-18 0 0 -2.61301397097407e-20 0 0 0 0)
(0 -1.77317855060586e-14 2.44828575008856e-35 0 -2.21493859028009e-14 -3.48675398694037e-37 -1.5254907135871e-19 -3.67542299061687e-37 -3.18792127298399e-55)
(0 -8.89006623413106e-15 -2.36891031839463e-35 2.68703617242323e-14 -1.05239535360319e-14 3.37371056342907e-37 1.20931388089582e-15 -9.32249389557524e-32 3.08456625111196e-55)
(0 5.44305016559574e-17 -5.87365055112983e-32 0 -1.34601523348842e-18 -6.94871359010792e-32 -1.15593236422376e-15 0 6.18099514136857e-49)
(-1.21568514080627e-14 5.57843076983189e-17 9.67703481553875e-35 2.43137028161254e-14 -2.41793892647256e-18 -4.1944554192301e-36 0 -2.57431341937598e-36 -4.46572192311365e-54)