/*--------------------------------*- C++ -*----------------------------------*\
| =========                 |                                                 |
| \\      /  F ield         | OpenFOAM: The Open Source CFD Toolbox           |
|  \\    /   O peration     | Version:  2.4.0                                 |
|   \\  /    A nd           | Web:      www.OpenFOAM.org                      |
|    \\/     M anipulation  |                                                 |
\*---------------------------------------------------------------------------*/
FoamFile
{
    version     2.0;
    format      ascii;
    class       volVectorField;
    location    "0";
    object      wallShearStress;
}
// * * * * * * * * * * * * * * * * * * * * * * * * * * * * * * * * * * * * * //

dimensions      [0 2 -2 0 0 0 0];

internalField   uniform (0 0 0);

boundaryField
{
    bottomWall
    {
        type            calculated;
        value           nonuniform List<vector> 
120
(
(-0.0347517967595156 0 0)
(-0.0347415976437862 -0.000285277220999192 -1.81087676659653e-22)
(-0.0350204458418364 -0.00144363301534348 0)
(-0.036335968329073 -0.00309794472349159 -5.45283853193023e-21)
(-0.0391425485843879 -0.00477115575821881 -3.27862702325161e-24)
(-0.041589758196845 -0.00572108118960041 4.58605221551992e-20)
(-0.0426539285070319 -0.00608369857215545 -2.56379690509963e-20)
(-0.042469060235043 -0.00611687792568916 7.99859307301141e-20)
(-0.0413654416329204 -0.00596944625434623 -2.23610391796148e-17)
(-0.0395825736715046 -0.00571301319509611 -2.14568892393377e-17)
(-0.037374014327182 -0.00539229729510733 1.74734712067304e-23)
(-0.0352965967021109 -0.00508724643749868 -3.26282752136058e-23)
(-0.0335045688768564 -0.00482219726210983 3.06630838488412e-23)
(-0.0319532105915702 -0.00459214251048365 -1.97676851845305e-20)
(-0.0306061841608748 -0.00439289412541912 -5.65954045402497e-20)
(-0.0294338118814878 -0.00422084468285659 -5.28900570903997e-23)
(-0.0283504065399689 -0.00406161920947686 -5.18583030908683e-20)
(-0.0271853251436157 -0.00388349806749256 6.56691686993791e-20)
(-0.0259309306973958 -0.00368075057425717 -1.52671132084618e-20)
(-0.0246073121973235 -0.00344908204821913 -1.42757537503934e-20)
(-0.023234498523387 -0.00317925051182317 3.81864024350537e-20)
(-0.0218474134158704 -0.00285838945075846 -3.3288334675088e-20)
(-0.0205697718536329 -0.00249838109864404 0)
(-0.0194743180808097 -0.00210886510628823 7.71268395273747e-21)
(-0.0185793104076947 -0.00168517554742292 0)
(-0.0179090792226736 -0.00122514066983751 0)
(-0.0174920049472006 -0.000730556004793566 -5.4244175196684e-19)
(-0.0173556248036729 -0.000211235055315714 -1.59347162059332e-19)
(-0.0173758984742148 5.25882895113543e-10 -1.27330872866223e-33)
(-0.0173758983797444 -9.23703696266387e-20 0)
(-0.0173758983797445 4.61851848133152e-20 0)
(-0.0173758983797447 3.65995804181003e-20 0)
(-0.0173758983797452 -8.27847652314187e-20 0)
(-0.0173758983797441 4.61851848137336e-20 0)
(-0.0173758983797443 -8.04688690535083e-18 0)
(-0.0173758983797448 8.00070172068327e-18 0)
(-0.0173758983797445 3.31139060926249e-20 0)
(-0.0173758983797446 5.92564635340627e-20 0)
(-0.0173758983797447 -2.96282317670327e-20 0)
(-0.0173758983797444 1.59848464882618e-17 -1.33359420973191e-32)
(-0.0173758983797449 -1.60014034413066e-17 -1.59282478489613e-37)
(-0.0173758983797439 4.61851848136695e-20 0)
(-0.0173758983797444 0 0)
(-0.0173758983797441 0 0)
(-0.0173758983797443 -9.23703696269618e-20 0)
(-0.0173758983797445 4.61851848133152e-20 0)
(-0.0173758983797447 3.65995804181049e-20 0)
(-0.0173758983797448 -8.27847652314137e-20 0)
(-0.0173758983797449 0 0)
(-0.0173758983797443 -7.96758781456152e-18 3.98206196224085e-38)
(-0.0173758983797444 8.05995818424963e-18 3.98206196230173e-38)
(-0.0173758983797443 -9.23703696256236e-20 0)
(-0.0173758983797449 6.27421378595776e-20 0)
(-0.0173758983797443 2.96282317671381e-20 0)
(-0.017375898379744 1.60014034413076e-17 3.98206196224074e-38)
(-0.0173758983797447 -1.60014034413065e-17 0)
(-0.0173758983797446 -5.92564635340623e-20 0)
(-0.0173758983797448 -3.31139060925692e-20 0)
(-0.0173758983797446 0 0)
(-0.0173758983797448 3.31139060923786e-20 0)
(-0.017375898379745 4.61851848130514e-20 0)
(-0.0173758983797447 -7.92990909063459e-20 0)
(-0.0173758983797448 3.31139060925692e-20 0)
(-0.017375898379745 5.92564635340663e-20 0)
(-0.0173758983797437 0 0)
(-0.0173758983797441 0 0)
(-0.0173758983797446 -4.61851848134776e-20 0)
(-0.0173758983797439 4.61851848133e-20 0)
(-0.0173758983797444 0 0)
(-0.0173758983797446 -5.92564635345216e-20 0)
(-0.0173758983797448 -3.31139060925691e-20 0)
(-0.0173758983797446 0 0)
(-0.0173758983797446 6.27421378595976e-20 0)
(-0.0173758983797446 0 0)
(-0.0173758983797448 -2.96282317670383e-20 0)
(-0.0173758983797446 5.92564635342773e-20 0)
(-0.0173758983797441 0 0)
(-0.0173758983797441 0 0)
(-0.0173758983797442 -4.61851848136707e-20 0)
(-0.0173758983797448 1.65569530462839e-20 0)
(-0.0173758983797443 2.96282317670306e-20 0)
(-0.0173758983797444 -9.23703696266269e-20 0)
(-0.0173758983797444 3.31139060925715e-20 0)
(-0.0173758983797452 -3.31139060926245e-20 0)
(-0.0173758983797442 0 0)
(-0.0173758983797448 4.61851848126547e-20 0)
(-0.0173758983797444 -4.61851848137305e-20 0)
(-0.0173758983797442 0 0)
(-0.0173758983797447 9.23703696266327e-20 0)
(-0.0173758983797443 -9.23703696266266e-20 0)
(-0.0173758983797443 9.23703696266269e-20 0)
(-0.0173758984742149 -5.25882895034312e-10 -4.24506394948179e-34)
(-0.017355624803673 0.00021123505531622 0)
(-0.0174920049472018 0.000730556004794055 1.23234652992767e-21)
(-0.0179090792226695 0.00122514066983766 2.17324635286258e-21)
(-0.018579310407686 0.00168517554742252 0)
(-0.0194743180808063 0.00210886510628832 7.57791403717607e-21)
(-0.0205697718536443 0.00249838109864579 9.4131637423103e-21)
(-0.0218474134158769 0.00285838945075941 -1.10532302932668e-20)
(-0.0232344985233899 0.00317925051182369 1.26790401874978e-20)
(-0.0246073121973034 0.00344908204821622 -4.23335343177677e-20)
(-0.0259309306973905 0.00368075057425653 -4.60752263053617e-20)
(-0.0271853251436142 0.00388349806749236 0)
(-0.028350406539981 0.00406161920947862 0)
(-0.0294338118814845 0.0042208446828561 1.80510278313228e-20)
(-0.0306061841600684 0.00439289412527707 5.65401895081063e-20)
(-0.0319532105918732 0.00459214251053641 5.93972818903009e-20)
(-0.0335045688776685 0.00482219726224458 6.27979957253891e-20)
(-0.0352965967030525 0.00508724643764813 6.68553359160678e-20)
(-0.0373740143250196 0.00539229729477849 -7.16062849975323e-20)
(-0.0395825736726253 0.00571301319526066 -7.64393502607853e-20)
(-0.0413654416343954 0.00596944625456659 2.65043275561401e-20)
(-0.0424690602322724 0.00611687792524116 -2.66581947243091e-20)
(-0.0426539285082548 0.00608369857238709 -2.56473600017917e-20)
(-0.0415897581974397 0.00572108118973805 2.2936162035696e-20)
(-0.0391425485844081 0.00477115575822105 0)
(-0.0363359683286061 0.00309794472317998 -1.63684132538224e-20)
(-0.0350204458418903 0.00144363301542475 0)
(-0.0347415976437914 0.000285277221020766 6.04019509604237e-23)
(-0.0347517967595117 0 0)
)
;
    }
    topWall
    {
        type            calculated;
        value           nonuniform List<vector> 
120
(
(-0.0335752276144482 -1.1235288494221e-19 -0)
(-0.0335752276144556 -0 -0)
(-0.0335752276144482 -0 -0)
(-0.0335752276144482 -0 -0)
(-0.0335752276144556 -0 -0)
(-0.0335752276144335 -0 -0)
(-0.0335752276144408 -0 -0)
(-0.0335752276144408 -0 -0)
(-0.0335752276144556 -0 -0)
(-0.0335752276144408 -0 -0)
(-0.0335752276144408 -0 -0)
(-0.0335752276144482 -0 -0)
(-0.0335752276144408 -0 -0)
(-0.0335752276144629 -0 -0)
(-0.0335752276144408 -0 -0)
(-0.0335752276144482 -0 -0)
(-0.0335752276144408 -0 -0)
(-0.0335752276144482 -0 -0)
(-0.0335752276144408 -0 -0)
(-0.0335752276144408 -0 -0)
(-0.0335752276144408 -0 -0)
(-0.0335752276144408 -0 -0)
(-0.0335752276144408 -0 -0)
(-0.0335752276144408 -0 -0)
(-0.0335752276144408 -0 -0)
(-0.0335752276144482 -0 -0)
(-0.0335752276144408 -0 -0)
(-0.0335752276144482 -0 -0)
(-0.0335752276144482 -0 -0)
(-0.0335752276144482 -0 -0)
(-0.0335752276144556 -0 -0)
(-0.0335752276144408 -0 -0)
(-0.0335752276144482 -0 -0)
(-0.0335752276144482 -0 -0)
(-0.0335752276144482 -0 -0)
(-0.0335752276144482 -0 -0)
(-0.0335752276144408 -0 -0)
(-0.0335752276144482 -0 -0)
(-0.0335752276144482 -0 -0)
(-0.0335752276144482 -0 -0)
(-0.0335752276144482 -0 -0)
(-0.0335752276144408 -0 -0)
(-0.0335752276144482 -0 -0)
(-0.0335752276144482 -0 -0)
(-0.0335752276144482 -0 -0)
(-0.0335752276144482 -0 -0)
(-0.0335752276144482 -0 -0)
(-0.0335752276144482 -0 -0)
(-0.0335752276144408 -0 -0)
(-0.0335752276144556 -0 -0)
(-0.0335752276144482 -0 -0)
(-0.0335752276144408 -0 -0)
(-0.0335752276144482 -0 -0)
(-0.0335752276144482 -0 -0)
(-0.0335752276144482 -0 -0)
(-0.0335752276144629 -0 -0)
(-0.0335752276144482 -0 -0)
(-0.0335752276144335 -0 -0)
(-0.0335752276144556 -0 -0)
(-0.0335752276144408 -0 -0)
(-0.0335752276144556 -0 -0)
(-0.0335752276144556 -0 -0)
(-0.0335752276144408 -0 -0)
(-0.0335752276144556 -0 -0)
(-0.0335752276144482 -0 -0)
(-0.0335752276144408 -0 -0)
(-0.0335752276144482 -0 -0)
(-0.0335752276144408 -0 -0)
(-0.0335752276144556 -0 -0)
(-0.0335752276144482 -0 -0)
(-0.0335752276144408 -0 -0)
(-0.0335752276144556 -0 -0)
(-0.0335752276144408 -0 -0)
(-0.0335752276144556 -0 -0)
(-0.0335752276144482 -0 -0)
(-0.0335752276144482 -0 -0)
(-0.0335752276144556 -0 -0)
(-0.0335752276144408 -0 -0)
(-0.0335752276144556 -0 -0)
(-0.0335752276144482 -0 -0)
(-0.0335752276144556 -0 -0)
(-0.0335752276144482 -0 -0)
(-0.0335752276144335 -0 -0)
(-0.0335752276144629 -0 -0)
(-0.0335752276144408 -0 -0)
(-0.0335752276144482 -0 -0)
(-0.0335752276144482 -0 -0)
(-0.0335752276144335 -0 -0)
(-0.0335752276144556 -0 -0)
(-0.0335752276144482 -0 -0)
(-0.0335752276144556 -0 -0)
(-0.0335752276144482 -0 -0)
(-0.0335752276144408 -0 -0)
(-0.0335752276144482 -0 -0)
(-0.0335752276144408 -0 -0)
(-0.0335752276144482 -0 -0)
(-0.0335752276144556 -0 -0)
(-0.0335752276144408 -0 -0)
(-0.0335752276144556 -0 -0)
(-0.0335752276144556 -0 -0)
(-0.0335752276144556 -0 -0)
(-0.0335752276144556 -0 -0)
(-0.0335752276144261 -0 -0)
(-0.0335752276144556 -0 -0)
(-0.0335752276144556 -0 -0)
(-0.0335752276144408 -0 -0)
(-0.0335752276144482 -0 -0)
(-0.0335752276144408 -0 -0)
(-0.0335752276144408 -0 -0)
(-0.0335752276144408 -0 -0)
(-0.0335752276144408 -0 -0)
(-0.0335752276144408 -0 -0)
(-0.0335752276144408 -0 -0)
(-0.0335752276144556 -0 -0)
(-0.0335752276144408 -0 -0)
(-0.0335752276144408 -0 -0)
(-0.0335752276144408 -0 -0)
(-0.0335752276144408 -0 -0)
(-0.0335752276144408 -0 -0)
(-0.0335752276144408 -0 -0)
)
;
    }
    inlet_half0
    {
        type            cyclic;
    }
    inlet_half1
    {
        type            cyclic;
    }
    outlet_half0
    {
        type            cyclic;
    }
    outlet_half1
    {
        type            cyclic;
    }
    sideRight_half0
    {
        type            empty;
    }
    sideRight_half1
    {
        type            empty;
    }
    sideLeft_half0
    {
        type            empty;
    }
    sideLeft_half1
    {
        type            empty;
    }
}


// ************************************************************************* //
