/*--------------------------------*- C++ -*----------------------------------*\
| =========                 |                                                 |
| \\      /  F ield         | OpenFOAM: The Open Source CFD Toolbox           |
|  \\    /   O peration     | Version:  2.4.0                                 |
|   \\  /    A nd           | Web:      www.OpenFOAM.org                      |
|    \\/     M anipulation  |                                                 |
\*---------------------------------------------------------------------------*/
FoamFile
{
    version     2.0;
    format      ascii;
    class       volScalarField;
    location    "0";
    object      y;
}
// * * * * * * * * * * * * * * * * * * * * * * * * * * * * * * * * * * * * * //

dimensions      [0 1 0 0 0 0 0];

internalField   nonuniform List<scalar> 
15600
(
0.00195548402185564
0.00195645416965321
0.00195063876044618
0.00191648812023749
0.00184313159975524
0.00178996101423237
0.00178176376090089
0.00181188478238986
0.0018722966337741
0.00195953085910297
0.00206964026456041
0.0021835620128486
0.00229332570346081
0.00239877061397343
0.0024998155566947
0.0025964397001834
0.00269264678214457
0.00279963989873975
0.00291942739087438
0.00305208208067317
0.00319728396628112
0.00335259994989345
0.00350513820548874
0.00364388938844948
0.00376209808209084
0.00385204777340317
0.00390589444951575
0.00391728049128777
0.00391096802245094
0.00391096804371433
0.00391096804371431
0.00391096804371425
0.00391096804371414
0.00391096804371439
0.00391096804371434
0.00391096804371423
0.0039109680437143
0.00391096804371428
0.00391096804371425
0.00391096804371433
0.0039109680437142
0.00391096804371444
0.00391096804371431
0.00391096804371439
0.00391096804371434
0.00391096804371431
0.00391096804371425
0.00391096804371423
0.0039109680437142
0.00391096804371433
0.00391096804371431
0.00391096804371434
0.0039109680437142
0.00391096804371434
0.00391096804371441
0.00391096804371425
0.00391096804371428
0.00391096804371422
0.00391096804371428
0.00391096804371423
0.0039109680437142
0.00391096804371426
0.00391096804371422
0.00391096804371419
0.00391096804371448
0.00391096804371439
0.00391096804371429
0.00391096804371444
0.00391096804371431
0.00391096804371428
0.00391096804371423
0.00391096804371427
0.00391096804371428
0.00391096804371428
0.00391096804371422
0.00391096804371429
0.00391096804371439
0.00391096804371439
0.00391096804371436
0.00391096804371423
0.00391096804371433
0.00391096804371433
0.00391096804371431
0.00391096804371415
0.00391096804371437
0.00391096804371422
0.00391096804371432
0.00391096804371437
0.00391096804371425
0.00391096804371434
0.00391096804371434
0.00391096802245092
0.00391728049128778
0.0039058944495155
0.00385204777340418
0.00376209808209287
0.00364388938845074
0.00350513820548701
0.00335259994989264
0.00319728396628084
0.00305208208067611
0.00291942739087522
0.00279963989873997
0.00269264678214386
0.00259643970018385
0.0024998155567422
0.00239877061395921
0.00229332570342136
0.00218356201280603
0.00206964026464789
0.00195953085906418
0.00187229663372496
0.00181188478247631
0.00178176376086625
0.00178996101421477
0.00184313159975394
0.00191648812025322
0.00195063876044428
0.00195645416965308
0.00195548402185586
0.005938264841174
0.00594389316168965
0.00597192801656382
0.00603676531454586
0.0061447853117029
0.00631786632646559
0.00655087528805517
0.00682599596544907
0.00712858573325047
0.00744829869647622
0.0077757242026233
0.00809924118187784
0.00841597443868956
0.00872695340566104
0.00903326100027055
0.00933601089832748
0.00963682867484322
0.00993698829755447
0.0102336065001052
0.0105227180842422
0.0107995786490701
0.0110581830772464
0.0112911055644655
0.0114928389909364
0.0116593131071844
0.0117864360701894
0.0118704545767701
0.0119085667014663
0.0119143867544587
0.0119120224059929
0.0119097338990214
0.0119075212575343
0.011905384523831
0.0119033237387901
0.0119013389418637
0.0118994301710754
0.0118975974630173
0.011895840852845
0.0118941603742734
0.0118925560595764
0.011891027939582
0.0118895760436689
0.0118882003997645
0.0118869010343419
0.0118856779724186
0.0118845312375519
0.0118834608518384
0.0118824668359103
0.0118815492089356
0.0118807079886141
0.0118799431911772
0.011879254831385
0.0118786429225262
0.0118781074764161
0.0118776485033957
0.0118772660123302
0.0118769600106089
0.0118767305041439
0.0118765774973703
0.011876500993244
0.0118765009932439
0.0118765774973703
0.0118767305041439
0.011876960010609
0.0118772660123302
0.0118776485033957
0.0118781074764162
0.0118786429225263
0.0118792548313851
0.0118799431911772
0.011880707988614
0.0118815492089356
0.0118824668359103
0.0118834608518381
0.0118845312375519
0.0118856779724185
0.0118869010343419
0.0118882003997641
0.0118895760436686
0.011891027939582
0.0118925560595767
0.0118941603742738
0.0118958408528449
0.0118975974630175
0.011899430171075
0.0119013389418631
0.01190332373879
0.0119053845238309
0.0119075212575341
0.011909733899021
0.0119120224059928
0.0119143867544587
0.0119085667014656
0.01187045457677
0.01178643607019
0.011659313107185
0.0114928389909375
0.011291105564465
0.0110581830772446
0.0107995786490694
0.0105227180842429
0.0102336065001052
0.00993698829755437
0.00963682867484284
0.00933601089832597
0.00903326100028798
0.00872695340566321
0.00841597443867886
0.00809924118185449
0.00777572420265665
0.00744829869646228
0.00712858573322339
0.00682599596548905
0.00655087528803321
0.00631786632645622
0.00614478531169441
0.00603676531455054
0.00597192801656437
0.00594389316168912
0.00593826484117379
0.0100669398239066
0.01007674277987
0.0101296432208101
0.0102599814170155
0.0104834232758048
0.0108154149734782
0.0112351689557324
0.0117132844072734
0.01222799678779
0.0127639242735946
0.0133074660096456
0.0138446120105453
0.0143722306903106
0.0148917829225077
0.0154048678042072
0.0159131785023852
0.0164186363469138
0.0169215721041392
0.0174169725007034
0.0178982633143692
0.0183575440808076
0.0187849386999696
0.0191692004712407
0.019501852174386
0.0197762516037445
0.0199857906833506
0.0201244746938065
0.0201878998021552
0.0201980574648039
0.0201940492634565
0.0201901696348808
0.0201864186184987
0.0201827962860185
0.0201793027067402
0.020175937947546
0.0201727020728964
0.0201695951448241
0.0201666172229269
0.020163768364362
0.0201610486238411
0.0201584580536256
0.0201559967035208
0.0201536646208713
0.0201514618505559
0.0201493884349854
0.0201474444140965
0.0201456298253477
0.0201439447037176
0.0201423890816993
0.0201409629893003
0.0201396664540358
0.0201384995009291
0.0201374621525076
0.0201365544288017
0.0201357763473413
0.0201351279231567
0.0201346091687737
0.0201342200942153
0.0201339607069992
0.0201338310121381
0.0201338310121381
0.0201339607069992
0.0201342200942153
0.0201346091687736
0.0201351279231567
0.0201357763473416
0.0201365544288016
0.0201374621525077
0.0201384995009291
0.0201396664540356
0.0201409629893001
0.0201423890816995
0.0201439447037172
0.0201456298253477
0.0201474444140965
0.0201493884349854
0.0201514618505558
0.020153664620871
0.0201559967035209
0.0201584580536255
0.0201610486238413
0.0201637683643624
0.0201666172229274
0.020169595144824
0.0201727020728961
0.0201759379475455
0.0201793027067401
0.0201827962860184
0.0201864186184984
0.0201901696348806
0.0201940492634566
0.0201980574648038
0.0201878998021548
0.0201244746938063
0.019985790683351
0.0197762516037451
0.0195018521743853
0.0191692004712401
0.0187849386999707
0.0183575440808068
0.017898263314372
0.0174169725007009
0.0169215721041397
0.0164186363469126
0.0159131785023841
0.0154048678042293
0.0148917829225119
0.0143722306903057
0.0138446120105169
0.0133074660096689
0.0127639242735838
0.0122279967877575
0.0117132844073149
0.0112351689557249
0.0108154149734604
0.0104834232757918
0.0102599814170155
0.0101296432208163
0.0100767427798712
0.0100669398239064
0.0143468600119734
0.0143609937170154
0.0144397484094929
0.0146382742576943
0.0149818603408836
0.0154789417094653
0.0160924129366323
0.0167809417695396
0.0175154508398281
0.0182753766334727
0.0190428000337027
0.019801269384585
0.0205473929748849
0.0212830735059503
0.0220104409623902
0.0227317859820793
0.0234493311335207
0.0241624211235167
0.0248638342926972
0.0255442921711647
0.0261926226282693
0.0267949371237997
0.0273360323161093
0.0278043547117475
0.0281905963772994
0.0284855417533713
0.0286808738330749
0.0287705294745432
0.0287851827901926
0.0287794705169189
0.0287739414793912
0.0287685957330291
0.0287634333800283
0.0287584545191506
0.0287536592457131
0.0287490476515817
0.028744619825162
0.028740375851389
0.0287363158117203
0.0287324397841289
0.0287287478430941
0.0287252400595955
0.0287219165011064
0.0287187772315861
0.0287158223114758
0.0287130517976905
0.0287104657436153
0.0287080641990989
0.0287058472104495
0.0287038148204308
0.0287019670682575
0.0287003039895903
0.0286988256165349
0.028697531977637
0.0286964230978801
0.0286954989986829
0.0286947596978981
0.0286942052098091
0.0286938355451305
0.028693650711005
0.028693650711005
0.0286938355451305
0.0286942052098091
0.0286947596978981
0.028695498998683
0.0286964230978801
0.0286975319776371
0.028698825616535
0.0287003039895903
0.0287019670682573
0.0287038148204309
0.0287058472104494
0.0287080641990987
0.0287104657436155
0.0287130517976907
0.0287158223114758
0.0287187772315862
0.0287219165011064
0.0287252400595955
0.0287287478430938
0.0287324397841292
0.0287363158117208
0.0287403758513895
0.0287446198251621
0.0287490476515818
0.0287536592457129
0.0287584545191507
0.0287634333800285
0.0287685957330289
0.0287739414793907
0.0287794705169186
0.0287851827901928
0.0287705294745428
0.0286808738330749
0.0284855417533718
0.0281905963772998
0.027804354711747
0.027336032316108
0.0267949371237989
0.0261926226282683
0.0255442921711653
0.0248638342926973
0.0241624211235165
0.0234493311335203
0.0227317859820784
0.0220104409624105
0.0212830735059648
0.0205473929748795
0.0198012693845545
0.0190428000337303
0.0182753766334655
0.0175154508397893
0.0167809417695776
0.0160924129366185
0.0154789417094456
0.0149818603408647
0.0146382742576982
0.0144397484094937
0.0143609937170176
0.0143468600119734
0.0187835659412971
0.0188021901276517
0.0189077726173594
0.0191770812158065
0.0196453780892326
0.0203137145193195
0.0211280415745759
0.0220346853509081
0.0229970109596549
0.0239890959205631
0.0249885527673027
0.0259764099287273
0.0269490079410086
0.0279087058120146
0.0288581825235845
0.0298003470276953
0.0307377324115139
0.0316686584433761
0.0325836140461132
0.0334705175371605
0.0343148052560022
0.035098429338423
0.0358020862918803
0.0364110345728305
0.0369132030461554
0.0372966734905023
0.0375507219846621
0.0376675657468337
0.0376868791239829
0.0376794003537446
0.0376721614846885
0.0376651625888179
0.037658403799931
0.0376518852473328
0.0376456070558161
0.0376395693456559
0.037633772232597
0.03762821582784
0.0376229002380332
0.0376178255652616
0.0376129919070381
0.0376083993562924
0.0376040480013623
0.0375999379259876
0.0375960692093002
0.0375924419258156
0.0375890561454279
0.0375859119334017
0.0375830093503659
0.0375803484523089
0.0375779292905715
0.0375757519118432
0.0375738163581575
0.0375721226668883
0.0375706708707449
0.0375694609977698
0.0375684930713364
0.0375677671101453
0.0375672831282243
0.0375670411349254
0.0375670411349254
0.0375672831282243
0.0375677671101452
0.0375684930713364
0.0375694609977701
0.0375706708707449
0.0375721226668884
0.0375738163581577
0.0375757519118431
0.0375779292905714
0.0375803484523087
0.0375830093503661
0.0375859119334017
0.0375890561454279
0.0375924419258155
0.0375960692093001
0.0375999379259876
0.0376040480013623
0.0376083993562923
0.0376129919070382
0.0376178255652618
0.0376229002380335
0.0376282158278403
0.037633772232597
0.037639569345656
0.0376456070558156
0.0376518852473331
0.0376584037999313
0.0376651625888171
0.0376721614846878
0.0376794003537445
0.0376868791239832
0.0376675657468336
0.0375507219846621
0.0372966734905026
0.0369132030461556
0.0364110345728313
0.0358020862918793
0.0350984293384207
0.0343148052560018
0.0334705175371581
0.032583614046116
0.0316686584433755
0.0307377324115127
0.0298003470276974
0.0288581825236089
0.0279087058120354
0.0269490079409995
0.0259764099286919
0.0249885527673252
0.0239890959205588
0.0229970109596144
0.0220346853509394
0.0211280415745736
0.0203137145192942
0.0196453780892074
0.0191770812158062
0.0189077726173639
0.0188021901276514
0.0187835659412969
0.0233828011124312
0.0234060807833192
0.0235394861038923
0.0238822153708953
0.0244798675054024
0.0253257860247875
0.02634834561144
0.0274810912662517
0.0286795643773865
0.0299122928513147
0.0311522607719172
0.0323778893068319
0.0335852422916222
0.0347771510061658
0.035956862948328
0.0371279275700769
0.038293199060151
0.0394499334460645
0.0405862462950412
0.0416871500558654
0.0427345652793749
0.04370613244804
0.0445782983861223
0.0453330171528334
0.0459553532870635
0.0464305870737321
0.0467454997271203
0.04689052605279
0.0469146700827009
0.046905360103656
0.0468963487670467
0.0468876361620676
0.0468792224552781
0.0468711078076428
0.0468632923745113
0.0468557763056085
0.0468485597450202
0.0468416428311746
0.0468350256968329
0.0468287084690767
0.0468226912692946
0.0468169742131709
0.0468115574106738
0.0468064409660462
0.0468016249777965
0.0467971095386855
0.046792894735721
0.0467889806501476
0.0467853673574399
0.0467820549272954
0.0467790434236257
0.0467763329045521
0.0467739234224009
0.0467718150236964
0.0467700077491575
0.0467685016336928
0.0467672967063985
0.0467663929905545
0.0467657905036233
0.0467654892572467
0.0467654892572467
0.0467657905036233
0.0467663929905546
0.0467672967063985
0.0467685016336928
0.0467700077491576
0.0467718150236966
0.0467739234224007
0.0467763329045521
0.0467790434236254
0.0467820549272952
0.0467853673574402
0.0467889806501476
0.0467928947357208
0.0467971095386856
0.0468016249777964
0.0468064409660461
0.0468115574106738
0.0468169742131709
0.0468226912692946
0.0468287084690768
0.0468350256968332
0.0468416428311746
0.0468485597450205
0.0468557763056085
0.0468632923745109
0.0468711078076429
0.0468792224552782
0.0468876361620673
0.0468963487670466
0.0469053601036565
0.0469146700827013
0.04689052605279
0.0467454997271206
0.0464305870737326
0.045955353287064
0.0453330171528326
0.0445782983861219
0.0437061324480407
0.0427345652793744
0.0416871500558651
0.0405862462950411
0.0394499334460629
0.0382931990601533
0.0371279275700704
0.0359568629483589
0.0347771510061927
0.0335852422916171
0.0323778893067903
0.0311522607719421
0.0299122928513097
0.0286795643773428
0.0274810912662813
0.0263483456114339
0.025325786024761
0.0244798675053709
0.0238822153708909
0.023539486103897
0.0234060807833189
0.0233828011124309
0.0281505194256263
0.0281786254029486
0.0283408795240059
0.0287597437333561
0.0294915312356746
0.0305215660434305
0.0317599962081776
0.0331271245390106
0.0345703879406508
0.0360525644662223
0.0375418420766737
0.0390139417515195
0.0404646409428123
0.0418972601126325
0.0433156357908181
0.044723981147948
0.0461254828144584
0.0475162934314958
0.048882068222165
0.0502048073248045
0.0514627866890031
0.0526291772091844
0.053676020720157
0.0545818460900864
0.055328748671964
0.0558991047398743
0.0562771093847666
0.0564513498372966
0.0564805014235992
0.0564692931533299
0.0564584444186104
0.0564479553264551
0.0564378260773858
0.0564280568651858
0.0564186478768816
0.056409599292726
0.0564009112861843
0.0563925840239098
0.0563846176657337
0.0563770123646488
0.0563697682667951
0.0563628855114447
0.0563563642309877
0.0563502045509226
0.0563444065898432
0.0563389704594243
0.0563338962644138
0.0563291841026233
0.0563248340649154
0.0563208462351985
0.0563172206904169
0.0563139575005422
0.0563110567285698
0.0563085184305106
0.0563063426553852
0.056304529445221
0.0563030788350463
0.0563019908528883
0.056301265519769
0.0563009028497055
0.0563009028497054
0.0563012655197692
0.0563019908528883
0.0563030788350463
0.056304529445221
0.0563063426553854
0.0563085184305107
0.0563110567285701
0.0563139575005421
0.0563172206904166
0.0563208462351986
0.0563248340649154
0.056329184102623
0.0563338962644141
0.0563389704594243
0.056344406589843
0.0563502045509224
0.0563563642309875
0.0563628855114447
0.0563697682667951
0.0563770123646492
0.0563846176657338
0.0563925840239103
0.0564009112861848
0.0564095992927264
0.056418647876881
0.056428056865186
0.0564378260773859
0.0564479553264551
0.0564584444186104
0.0564692931533302
0.0564805014235997
0.0564513498372965
0.0562771093847669
0.0558991047398749
0.0553287486719644
0.054581846090086
0.0536760207201553
0.0526291772091837
0.0514627866890017
0.0502048073248046
0.0488820682221672
0.0475162934314927
0.0461254828144537
0.04472398114795
0.0433156357908482
0.0418972601126681
0.0404646409428066
0.0390139417514735
0.0375418420766943
0.0360525644662203
0.0345703879406023
0.0331271245390434
0.0317599962081751
0.0305215660433986
0.0294915312356373
0.0287597437333558
0.0283408795240155
0.0281786254029504
0.0281505194256263
0.0330928928882684
0.0331260021451415
0.0333181660194637
0.0338159693246252
0.0346868312069501
0.0359077443561604
0.0373699588026232
0.0389800545545425
0.0406770707450834
0.0424178267862222
0.0441655399054442
0.0458931334465249
0.0475960882467134
0.049278231646902
0.0509440106076938
0.0525983261901933
0.0542447093952112
0.0558781686514691
0.0574818086737526
0.059034506936396
0.0605107612549993
0.0618791092032943
0.0631070264920406
0.0641694914934745
0.0650455216594618
0.0657144829508687
0.0661578896932895
0.0663624139512843
0.0663967565086682
0.0663835804073414
0.0663708269653671
0.0663584963082328
0.0663465886716654
0.0663351042834724
0.0663240433635142
0.0663134061236923
0.0663031927679259
0.0662934034921281
0.0662840384841919
0.0662750979239711
0.0662665819832621
0.0662584908257903
0.0662508246071889
0.0662435834749904
0.0662367675686096
0.0662303770193285
0.0662244119502856
0.0662188724764642
0.0662137587046807
0.0662090707335754
0.0662048086536004
0.0662009725470133
0.0661975624878695
0.0661945785420131
0.0661920207670721
0.0661898892124515
0.0661881839193304
0.0661869049206563
0.0661860522411426
0.066185625897266
0.0661856258972661
0.0661860522411425
0.0661869049206563
0.0661881839193304
0.0661898892124515
0.0661920207670722
0.0661945785420134
0.0661975624878694
0.0662009725470134
0.0662048086536003
0.0662090707335753
0.066213758704681
0.066218872476464
0.0662244119502857
0.0662303770193287
0.0662367675686096
0.0662435834749902
0.0662508246071889
0.0662584908257904
0.0662665819832622
0.0662750979239709
0.0662840384841924
0.0662934034921288
0.0663031927679263
0.0663134061236925
0.066324043363514
0.0663351042834724
0.0663465886716657
0.0663584963082327
0.0663708269653667
0.0663835804073419
0.0663967565086686
0.0663624139512842
0.0661578896932897
0.0657144829508691
0.0650455216594617
0.0641694914934746
0.0631070264920396
0.0618791092032915
0.0605107612550001
0.0590345069363955
0.0574818086737499
0.0558781686514685
0.0542447093952098
0.0525983261901912
0.0509440106077325
0.0492782316469355
0.0475960882467152
0.0458931334464651
0.0441655399054693
0.0424178267862244
0.0406770707450224
0.0389800545545803
0.0373699588026238
0.0359077443561224
0.0346868312069029
0.0338159693246206
0.0333181660194759
0.0331260021451452
0.0330928928882686
0.0382163196046735
0.0382546155403865
0.0384777875962258
0.0390574317727558
0.0400724793351303
0.041491274458156
0.0431854745772866
0.0450474372892744
0.0470074987350135
0.0490163026067105
0.0510319139674636
0.0530243569081047
0.0549888049398576
0.0569296107161982
0.0588518538812046
0.0607611484986689
0.0626613823982231
0.0645463776197313
0.066396594907882
0.0681876746696301
0.0698901981606695
0.0714678998962456
0.0728835223518954
0.0741083634637167
0.0751182500781603
0.0758894276313657
0.0764006315540636
0.0766365486558554
0.0766762723351264
0.0766610563154704
0.076646328391375
0.0766320887074777
0.0766183375360003
0.0766050751400185
0.0765923017734332
0.076580017680951
0.0765682230980622
0.0765569182510109
0.0765461033567795
0.0765357786230669
0.0765259442482676
0.0765166004214536
0.0765077473223542
0.0764993851213424
0.0764915139794169
0.076484134048185
0.0764772454698495
0.0764708483771956
0.0764649428935767
0.0764595291329037
0.0764546071996339
0.0764501771887592
0.0764462391858002
0.0764427932667955
0.0764398394982943
0.0764373779373511
0.0764354086315199
0.0764339316188493
0.0764329469278785
0.076432454577636
0.0764324545776359
0.0764329469278786
0.0764339316188492
0.0764354086315199
0.0764373779373513
0.0764398394982945
0.0764427932667955
0.0764462391858002
0.0764501771887594
0.0764546071996338
0.0764595291329039
0.0764649428935765
0.0764708483771955
0.0764772454698497
0.0764841340481852
0.0764915139794169
0.0764993851213425
0.0765077473223542
0.0765166004214534
0.0765259442482674
0.0765357786230672
0.07654610335678
0.0765569182510114
0.0765682230980625
0.076580017680951
0.0765923017734329
0.0766050751400189
0.0766183375360006
0.0766320887074776
0.0766463283913749
0.0766610563154707
0.0766762723351263
0.0766365486558554
0.0764006315540637
0.0758894276313659
0.0751182500781604
0.0741083634637155
0.0728835223518942
0.0714678998962457
0.0698901981606666
0.0681876746696298
0.0663965949078838
0.0645463776197322
0.062661382398219
0.0607611484986706
0.0588518538812402
0.0569296107162457
0.0549888049398568
0.0530243569080414
0.0510319139674786
0.0490163026067158
0.0470074987349561
0.0450474372893029
0.0431854745772893
0.0414912744581167
0.0400724793350837
0.0390574317727449
0.0384777875962401
0.0382546155403896
0.0382163196046735
0.0435274320585203
0.0435711047576755
0.0438264228503678
0.0444909129965572
0.0456554397375743
0.0472793734447411
0.0492140597638564
0.0513371151605044
0.0535698556932144
0.0558565239304032
0.0581498444439628
0.060416836375956
0.0626523547450706
0.0648612966787001
0.0670493976134891
0.0692230106803157
0.071386393506934
0.0735321381081862
0.0756379643757098
0.0776761570498022
0.0796132373278649
0.0814079607061367
0.08301816314929
0.084411327431774
0.0855599729588036
0.0864371103852385
0.087018594511725
0.0872870542246572
0.0873323561531282
0.0873150254871153
0.0872982507499856
0.0872820321062285
0.0872663698658977
0.0872512643286299
0.0872367157836112
0.0872227245095575
0.0872092907746857
0.0871964148366823
0.0871840969426843
0.0871723373292561
0.087161136222364
0.0871504938373561
0.08714041037894
0.0871308860411655
0.0871219210074074
0.0871135154503413
0.0871056695319332
0.0870983834034218
0.0870916572053036
0.0870854910673213
0.0870798851084477
0.0870748394368771
0.0870703541500148
0.0870664293344672
0.0870630650660322
0.0870602614096932
0.0870580184196131
0.0870563361391281
0.0870552146007445
0.087054653826134
0.0870546538261341
0.0870552146007444
0.0870563361391282
0.0870580184196132
0.0870602614096933
0.0870630650660323
0.0870664293344673
0.0870703541500151
0.0870748394368771
0.0870798851084478
0.087085491067321
0.0870916572053039
0.0870983834034217
0.0871056695319332
0.0871135154503414
0.0871219210074074
0.0871308860411655
0.0871404103789399
0.0871504938373562
0.087161136222364
0.0871723373292564
0.0871840969426848
0.0871964148366827
0.0872092907746861
0.0872227245095576
0.087236715783611
0.0872512643286302
0.0872663698658981
0.0872820321062285
0.0872982507499856
0.0873150254871153
0.0873323561531284
0.087287054224657
0.0870185945117248
0.0864371103852384
0.0855599729588034
0.0844113274317738
0.0830181631492879
0.0814079607061335
0.079613237327865
0.0776761570497992
0.0756379643757066
0.0735321381081849
0.0713863935069366
0.0692230106803114
0.0670493976135324
0.064861296678754
0.0626523547450713
0.0604168363758898
0.0581498444439799
0.0558565239304066
0.0535698556931482
0.051337115160533
0.049214059763868
0.0472793734446947
0.0456554397375156
0.0444909129965467
0.0438264228503827
0.04357110475768
0.0435274320585201
0.0490331056987127
0.0490823521886946
0.0493709953509558
0.0501234447949362
0.0514429349825208
0.0532795274673687
0.055463511083315
0.0578572229483612
0.0603726299076715
0.0629473395122346
0.065528540458326
0.0671607636523098
0.0691865776295656
0.071147860838871
0.073023654888934
0.0747976860722326
0.0765383364556575
0.078543590038005
0.0810896627047847
0.0842521685354298
0.0880962375186103
0.0917121584585424
0.0935240678640356
0.0950917205023369
0.0963842072208423
0.097371185447288
0.0980255238843838
0.0983277181584558
0.0983788026922111
0.0983592799143182
0.0983403833835595
0.0983221132850026
0.0983044699679197
0.0982874537698473
0.0982710650165503
0.0982553040219983
0.0982401710883342
0.0982256665058391
0.0982117905529097
0.0981985434960326
0.0981859255897558
0.0981739370766664
0.0981625781873652
0.0981518491404466
0.0981417501424792
0.0981322813879817
0.0981234430594057
0.0981152353271198
0.0981076583493916
0.0981007122723739
0.0980943972300896
0.0980887133444171
0.0980836607250827
0.0980792394696466
0.0980754496634948
0.0980722913798308
0.0980697646796678
0.0980678696118237
0.098066606212916
0.0980659745073584
0.0980659745073585
0.0980666062129164
0.0980678696118236
0.098069764679668
0.0980722913798311
0.0980754496634949
0.0980792394696466
0.0980836607250825
0.098088713344417
0.0980943972300895
0.098100712272374
0.0981076583493918
0.0981152353271197
0.098123443059406
0.0981322813879821
0.0981417501424793
0.0981518491404464
0.098162578187365
0.0981739370766664
0.0981859255897558
0.0981985434960329
0.0982117905529103
0.0982256665058395
0.0982401710883346
0.0982553040219984
0.09827106501655
0.0982874537698476
0.09830446996792
0.0983221132850026
0.0983403833835594
0.0983592799143187
0.0983788026922116
0.0983277181584553
0.0980255238843842
0.0973711854472883
0.0963842072208416
0.0950917205023364
0.0935240678640348
0.0917121584585407
0.0880962375186171
0.0842521685354319
0.0810896627047847
0.0785435900380088
0.0765383364556604
0.0747976860732891
0.0730236548895688
0.0711478608376857
0.0691865776279631
0.0671607636532174
0.0655285404583395
0.0629473395122489
0.0603726299075975
0.0578572229483903
0.0554635110833267
0.0532795274673194
0.0514429349824533
0.0501234447949265
0.0493709953509714
0.049082352188699
0.0490331056987127
0.0547404678397526
0.0547954923522259
0.0551186824772337
0.0559623173814876
0.0574424541202759
0.0594994995735784
0.06194191379711
0.0646161963132381
0.0652509995685218
0.0658322687915876
0.0675420010734369
0.0699231546156361
0.0724093293159797
0.0748128759775795
0.0771141774219543
0.0792988875826489
0.081441142951555
0.0838523967956756
0.0868151409357753
0.09040062148931
0.0946699224019082
0.0997031814682276
0.10441483637362
0.106163368570474
0.107604965078305
0.108705807311502
0.109435668540658
0.109772833031885
0.109829912018773
0.1098081168257
0.10978702077397
0.109766624069984
0.109746927103667
0.109727930251845
0.109709633878201
0.10969203833325
0.109675143954305
0.109658951065433
0.109643459977437
0.109628670987822
0.109614584380766
0.109601200427091
0.109588519384239
0.109576541496251
0.109565266993738
0.109554696093859
0.109544829000305
0.109535665903274
0.109527206979456
0.109519452392017
0.109512402290577
0.109506056811203
0.109500416076392
0.109495480195062
0.109491249262536
0.109487723360538
0.109484902557183
0.109482786906973
0.109481376450787
0.109480671215879
0.10948067121588
0.109481376450787
0.109482786906973
0.109484902557184
0.109487723360538
0.109491249262536
0.109495480195062
0.109500416076392
0.109506056811203
0.109512402290577
0.109519452392017
0.109527206979457
0.109535665903274
0.109544829000305
0.109554696093859
0.109565266993738
0.109576541496251
0.109588519384239
0.109601200427091
0.109614584380766
0.109628670987823
0.109643459977438
0.109658951065433
0.109675143954305
0.10969203833325
0.1097096338782
0.109727930251845
0.109746927103667
0.109766624069984
0.10978702077397
0.1098081168257
0.109829912018773
0.109772833031885
0.109435668540658
0.108705807311502
0.107604965078304
0.106163368570473
0.104414836373619
0.0997031814682236
0.0946699224019096
0.0904006214893104
0.0868151409357766
0.083852396795672
0.0814411429515574
0.0792988875837335
0.0771141774226311
0.0748128759763534
0.0724093293142683
0.0699231546166007
0.0675420010743663
0.0658322687895381
0.0652509995693606
0.0646161963132602
0.0619419137971244
0.0594994995735234
0.0574424541202086
0.0559623173814768
0.0551186824772503
0.0547954923522284
0.0547404678397526
0.0606569068881426
0.0607179211273192
0.0610769246446718
0.0620150885270218
0.0636617616941456
0.0659473387973867
0.0686576511161926
0.0680049056843973
0.0675792577563556
0.06854830680074
0.0707196571900865
0.0735869284179822
0.0765463456602898
0.0794033577448808
0.0821405653147934
0.0847461750504249
0.0872993373005449
0.0901209879809407
0.0934967165517688
0.0974933554619511
0.102168191589992
0.107598123142712
0.113647477295787
0.117640604142496
0.119236772131108
0.120455649029661
0.12126379933645
0.121637214994658
0.121700508047692
0.121676357194409
0.121652981046999
0.121630379833978
0.121608553987415
0.121587503924863
0.121567230049313
0.121547732749165
0.121529012398188
0.121511069355475
0.121493903965423
0.121477516557689
0.121461907447165
0.121447076933947
0.121433025303301
0.121419752825642
0.121407259756508
0.121395546336529
0.121384612791411
0.121374459331907
0.121365086153806
0.121356493437908
0.121348681350005
0.121341650040871
0.121335399646241
0.121329930286806
0.121325242068192
0.121321335080955
0.121318209400573
0.121315865087438
0.121314302186846
0.121313520729
0.121313520729
0.121314302186846
0.121315865087438
0.121318209400573
0.121321335080955
0.121325242068192
0.121329930286806
0.121335399646241
0.121341650040871
0.121348681350006
0.121356493437908
0.121365086153806
0.121374459331907
0.12138461279141
0.121395546336529
0.121407259756508
0.121419752825642
0.121433025303301
0.121447076933947
0.121461907447165
0.121477516557689
0.121493903965423
0.121511069355476
0.121529012398188
0.121547732749166
0.121567230049313
0.121587503924864
0.121608553987415
0.121630379833978
0.121652981046999
0.121676357194409
0.121700508047693
0.121637214994658
0.12126379933645
0.120455649029661
0.119236772131108
0.117640604142495
0.113647477295783
0.107598123142706
0.102168191589995
0.097493355461953
0.0934967165517697
0.0901209879809383