/*--------------------------------*- C++ -*----------------------------------*\
| =========                 |                                                 |
| \\      /  F ield         | OpenFOAM: The Open Source CFD Toolbox           |
|  \\    /   O peration     | Version:  2.4.0                                 |
|   \\  /    A nd           | Web:      www.OpenFOAM.org                      |
|    \\/     M anipulation  |                                                 |
\*---------------------------------------------------------------------------*/
FoamFile
{
    version     2.0;
    format      ascii;
    class       volScalarField;
    location    "0";
    object      yPlus;
}
// * * * * * * * * * * * * * * * * * * * * * * * * * * * * * * * * * * * * * //

dimensions      [0 0 0 0 0 0 0];

internalField   uniform 0;

boundaryField
{
    bottomWall
    {
        type            calculated;
        value           nonuniform List<scalar> 
120
(
3.86228097273147
3.86323892450125
3.85749306158642
3.82357659481519
3.74968599959687
3.69520481177567
3.68673387616411
3.71776570993691
3.77923638332962
3.86627536597956
3.97341714323731
4.08130915991605
4.18263144399313
4.27770753460715
4.36687451075589
4.45046970654557
4.53217240547086
4.62133887564486
4.71916940875692
4.82519460169303
4.93863959085684
5.05717049917901
5.170937660304
5.27229037618825
5.3571250694212
5.4207897242587
5.4585460718662
5.46649636419339
5.46209011848622
5.46209013333453
5.46209013333451
5.46209013333447
5.4620901333344
5.46209013333457
5.46209013333454
5.46209013333445
5.46209013333451
5.46209013333449
5.46209013333447
5.46209013333453
5.46209013333444
5.46209013333461
5.46209013333451
5.46209013333457
5.46209013333453
5.46209013333451
5.46209013333447
5.46209013333445
5.46209013333444
5.46209013333453
5.46209013333451
5.46209013333453
5.46209013333444
5.46209013333453
5.46209013333459
5.46209013333447
5.46209013333449
5.46209013333445
5.4620901333345
5.46209013333445
5.46209013333443
5.46209013333448
5.46209013333445
5.46209013333443
5.46209013333463
5.46209013333457
5.4620901333345
5.4620901333346
5.46209013333451
5.46209013333449
5.46209013333446
5.46209013333449
5.46209013333449
5.4620901333345
5.46209013333445
5.4620901333345
5.46209013333457
5.46209013333457
5.46209013333455
5.46209013333446
5.46209013333453
5.46209013333453
5.46209013333451
5.4620901333344
5.46209013333455
5.46209013333445
5.46209013333452
5.46209013333455
5.46209013333447
5.46209013333453
5.46209013333453
5.4620901184862
5.46649636419342
5.45854607186602
5.42078972425947
5.35712506942279
5.27229037618954
5.17093766030281
5.05717049917852
4.93863959085668
4.82519460169573
4.71916940875773
4.62133887564509
4.53217240547061
4.45046970654608
4.36687451079855
4.27770753459562
4.18263144395743
4.08130915987645
3.97341714332137
3.86627536594302
3.77923638328054
3.7177657100252
3.68673387612987
3.69520481175834
3.74968599959521
3.8235765948313
3.85749306158451
3.86323892450122
3.86228097273169
)
;
    }
    topWall
    {
        type            calculated;
        value           nonuniform List<scalar> 
120
(
3.92937080157935
3.92937080157892
3.92937080157763
3.92937080157935
3.92937080157719
3.92937080157849
3.92937080157806
3.92937080157892
3.92937080157892
3.92937080157892
3.92937080157892
3.92937080157935
3.92937080157892
3.92937080157849
3.92937080157892
3.92937080157849
3.92937080157892
3.92937080157935
3.92937080157892
3.92937080157892
3.92937080157892
3.92937080157892
3.92937080157978
3.92937080157892
3.92937080157892
3.92937080157849
3.92937080157892
3.92937080157935
3.92937080157849
3.92937080157935
3.92937080157892
3.92937080157892
3.92937080157935
3.92937080157849
3.92937080157935
3.92937080157935
3.92937080157892
3.92937080157935
3.92937080157849
3.92937080157935
3.92937080157935
3.92937080157892
3.92937080157935
3.92937080157849
3.92937080157935
3.92937080157935
3.92937080157849
3.92937080157935
3.92937080157892
3.92937080157892
3.92937080157935
3.92937080157892
3.92937080157935
3.92937080157849
3.92937080157935
3.92937080157849
3.92937080157935
3.92937080157935
3.92937080157892
3.92937080157978
3.92937080157892
3.92937080157892
3.92937080157892
3.92937080157892
3.92937080157935
3.92937080157978
3.92937080157935
3.92937080157892
3.92937080157892
3.92937080157935
3.92937080157978
3.92937080157892
3.92937080157892
3.92937080157892
3.92937080157935
3.92937080157935
3.92937080157892
3.92937080157892
3.92937080157892
3.92937080157935
3.92937080157892
3.92937080157935
3.92937080157935
3.92937080157849
3.92937080157978
3.92937080157935
3.92937080157935
3.92937080157935
3.92937080157892
3.92937080157935
3.92937080157892
3.92937080157935
3.92937080157892
3.92937080157935
3.92937080157978
3.92937080157935
3.92937080157892
3.92937080157892
3.92937080157892
3.92937080157892
3.92937080157892
3.92937080157892
3.92937080157978
3.92937080157892
3.92937080157892
3.92937080157978
3.92937080157935
3.92937080157892
3.92937080157978
3.92937080157892
3.92937080157892
3.92937080157978
3.92937080157892
3.92937080157892
3.92937080157892
3.92937080157892
3.92937080157978
3.92937080157892
3.92937080157978
3.92937080157892
)
;
    }
    inlet_half0
    {
        type            cyclic;
    }
    inlet_half1
    {
        type            cyclic;
    }
    outlet_half0
    {
        type            cyclic;
    }
    outlet_half1
    {
        type            cyclic;
    }
    sideRight_half0
    {
        type            empty;
    }
    sideRight_half1
    {
        type            empty;
    }
    sideLeft_half0
    {
        type            empty;
    }
    sideLeft_half1
    {
        type            empty;
    }
}


// ************************************************************************* //
