/*--------------------------------*- C++ -*----------------------------------*\
| =========                 |                                                 |
| \\      /  F ield         | OpenFOAM: The Open Source CFD Toolbox           |
|  \\    /   O peration     | Version:  2.4.0                                 |
|   \\  /    A nd           | Web:      www.OpenFOAM.org                      |
|    \\/     M anipulation  |                                                 |
\*---------------------------------------------------------------------------*/
FoamFile
{
    version     2.0;
    format      ascii;
    class       volSymmTensorField;
    location    "18000";
    object      aDelta;
}
// * * * * * * * * * * * * * * * * * * * * * * * * * * * * * * * * * * * * * //

dimensions      [0 2 -2 0 0 0 0];

internalField   nonuniform List<symmTensor> 
15600
(
(1.23213507486132e-07 1.28669268051057e-09 2.26517444133196e-28 1.23205184450037e-07 1.29973297795336e-26 -2.46418691936169e-07)
(1.88206637808091e-07 6.74715791608385e-10 3.80308055122461e-25 1.88150686280793e-07 2.32512087778567e-25 -3.76357324088884e-07)
(3.31223709241301e-08 3.77778637964919e-10 3.84194261564647e-27 3.2966438885779e-08 1.66191762069562e-26 -6.60888098099091e-08)
(5.41767937295932e-12 -9.25047544452951e-13 -5.86741515690973e-25 2.73481634948947e-12 -1.73851058813087e-24 -8.15249572244879e-12)
(3.2356413557892e-09 4.694866803023e-11 3.39717088353892e-23 3.12076269799401e-09 -1.62615105721742e-23 -6.35640405378321e-09)
(1.07620534714561e-09 8.31657469840852e-12 -3.17487566112752e-26 1.04343929891464e-09 -6.80742280969861e-27 -2.11964464606025e-09)
(1.74446100571979e-10 7.44267950306786e-13 -2.0356760114911e-27 1.69998497177295e-10 1.50715297972811e-27 -3.44444597749274e-10)
(5.74412823473902e-11 1.9382813902937e-13 -5.81658454927255e-27 5.57948462536682e-11 -1.96295878152655e-27 -1.13236128601058e-10)
(2.05183918872115e-11 3.78949037550971e-14 8.90064213068944e-26 2.01088183537076e-11 7.74732094145385e-26 -4.06272102409191e-11)
(9.60629939183118e-12 1.45816752392168e-14 3.81727388659788e-26 9.43703528541651e-12 4.0607474179922e-26 -1.90433346772477e-11)
(4.69318745175835e-12 2.86137397080575e-15 1.75101188332197e-28 4.66257888415504e-12 3.90743671683629e-29 -9.35576633591339e-12)
(3.49855884452487e-12 -2.73255349425744e-16 -2.04048933821104e-33 3.50121211909585e-12 2.43598725907069e-32 -6.99977096362072e-12)
(3.44424089879737e-12 -3.28754211178785e-15 4.006108646537e-30 3.47400267212257e-12 1.11650501018495e-30 -6.91824357091994e-12)
(4.98472650554484e-12 -8.41094088696188e-15 1.62485546350866e-28 5.05765274182441e-12 -1.23047190420169e-28 -1.00423792473693e-11)
(1.03225609513562e-11 -1.96119529887426e-14 -1.27498558357887e-28 1.04873300395421e-11 3.62003979394016e-28 -2.08098909908983e-11)
(2.62964479440794e-11 -4.61853677560252e-14 9.4503757849433e-30 2.66742419930742e-11 2.55760430379932e-30 -5.29706899371536e-11)
(6.65388889469181e-11 -8.73053105971004e-14 3.59092166066359e-28 6.72247430150142e-11 1.25294203744175e-27 -1.33763631961932e-10)
(1.49121649417508e-10 -1.568964229234e-13 -2.77723240042036e-27 1.50244145441045e-10 -1.6290355526517e-27 -2.99365794858553e-10)
(2.95774952792244e-10 -2.57800271693643e-13 4.49673827291935e-27 2.97369584729748e-10 -2.1774323846127e-27 -5.93144537521991e-10)
(5.07356047089395e-10 -4.76972273072087e-13 5.66775880974588e-27 5.09800721807788e-10 -5.40227362013884e-27 -1.01715676889718e-09)
(7.40113645590331e-10 -1.05941263686025e-12 -3.74403000311413e-27 7.44461115832655e-10 -1.50221914148611e-26 -1.48457476142299e-09)
(9.54954332520668e-10 -2.75034373091848e-12 5.09639073775777e-27 9.63731318917677e-10 2.12445074751028e-26 -1.91868565143834e-09)
(1.15556756348865e-09 -5.8309836416738e-12 -3.80123797371971e-26 1.16984273586311e-09 1.24944907541593e-26 -2.32541029935176e-09)
(1.28757522968169e-09 -9.92698617461895e-12 -3.46338287510395e-26 1.30594781661896e-09 1.33980927124034e-26 -2.59352304630065e-09)
(1.30349735783266e-09 -1.42357051559558e-11 -2.33438146443306e-26 1.3227341499995e-09 1.08557949336947e-26 -2.62623150783216e-09)
(1.22671478353636e-09 -2.00145457477939e-11 1.27747249671738e-25 1.24497104638074e-09 2.77963530641059e-25 -2.4716858299171e-09)
(9.97517847247764e-10 -1.35121876655369e-11 -3.88683011530964e-25 1.00466988235668e-09 1.76558024105474e-24 -2.00218772960445e-09)
(1.59125078851148e-09 -2.3498359623743e-11 -2.98555473496029e-25 1.59638281499367e-09 2.05431202713482e-24 -3.18763360350516e-09)
(6.46400496174785e-09 -5.45970202692226e-11 3.64510503422606e-26 6.46817524127976e-09 -8.78492403403773e-25 -1.29321802030276e-08)
(1.86647896556552e-08 -7.83063401495906e-11 -2.80322468514392e-34 1.86687421656189e-08 5.32520592808749e-33 -3.73335318212741e-08)
(3.58252634700901e-08 -1.23229486027789e-10 -2.01169937435138e-25 3.58295628666947e-08 3.62362282314047e-24 -7.16548263367848e-08)
(5.77156937331317e-08 -1.38692917821762e-10 2.86680051558337e-25 5.77192921718862e-08 1.05046940618414e-22 -1.15434985905018e-07)
(8.22479602243737e-08 -1.57234584663651e-10 5.27057816170336e-24 8.22511013565663e-08 1.34870350985616e-22 -1.6449906158094e-07)
(1.08481252738613e-07 -1.61674598381092e-10 6.09925702990095e-25 1.08483812272964e-07 -1.0202335119772e-23 -2.16965065011577e-07)
(1.35201741075889e-07 -1.62505980875552e-10 3.55546079689278e-27 1.35203817753721e-07 -2.20054965575222e-29 -2.7040555882961e-07)
(1.61643534719374e-07 -1.55160385451102e-10 5.74919999629789e-27 1.61645152577731e-07 -2.90536838909781e-29 -3.23288687297105e-07)
(1.87018028275756e-07 -1.43732070353022e-10 -6.36133681301019e-27 1.87019255732964e-07 4.82895320688032e-28 -3.74037284008719e-07)
(2.10725419812513e-07 -1.27650699089777e-10 2.32531852993502e-24 2.10726309886498e-07 -4.44100930772084e-23 -4.21451729699011e-07)
(2.32216830352164e-07 -1.08975644493814e-10 -4.64238232118111e-23 2.3221744419712e-07 -4.37787128759877e-22 -4.64434274549283e-07)
(2.51061824050644e-07 -8.82740196353492e-11 -7.88296634421279e-23 2.51062217624226e-07 -3.64702734860839e-22 -5.0212404167487e-07)
(2.66917271558226e-07 -6.69256562810132e-11 -3.03374744238741e-24 2.66917499695116e-07 6.20705222556904e-23 -5.33834771253341e-07)
(2.7955530667318e-07 -4.58886002464198e-11 1.43442830784614e-27 2.79555419329745e-07 1.30471662778e-27 -5.59110726002925e-07)
(2.88850018105859e-07 -2.62922246432962e-11 -1.21633653547382e-26 2.88850059507951e-07 -3.0101778524609e-27 -5.7770007761381e-07)
(2.94745859164193e-07 -6.84688472490443e-12 2.47285049272138e-26 2.9474586422893e-07 3.10431812895563e-27 -5.89491723393122e-07)
(2.9715114250001e-07 1.17737115477514e-11 -7.23985868315538e-28 2.97151143166463e-07 -4.73957147948033e-27 -5.94302285666474e-07)
(2.96085537908071e-07 2.80622812838444e-11 -5.22563258475539e-24 2.96085560706403e-07 1.44570815102361e-22 -5.92171098614473e-07)
(2.9187454833526e-07 4.15632136775417e-11 2.03302332507231e-22 2.91874612103375e-07 6.56931900850444e-22 -5.83749160438635e-07)
(2.84804753218871e-07 5.24377918204949e-11 2.5033881759512e-22 2.84804869966505e-07 3.48263559653869e-22 -5.69609623185376e-07)
(2.75223865609676e-07 6.07321394584681e-11 4.84196838557063e-24 2.75224041282478e-07 -1.51478565484356e-22 -5.50447906892154e-07)
(2.63512220637875e-07 6.65795066828219e-11 -9.85357774294021e-27 2.63512456102098e-07 -2.31230380707548e-27 -5.27024676739974e-07)
(2.50067546486563e-07 7.01866375065349e-11 2.02026651034032e-26 2.50067838574218e-07 2.4806667272854e-28 -5.0013538506078e-07)
(2.35290075468504e-07 7.18112424921385e-11 -4.20282893968487e-24 2.35290418033549e-07 1.83461415174484e-22 -4.70580493502053e-07)
(2.19569393961503e-07 7.17393583774766e-11 2.6118612667493e-22 2.19569778870835e-07 5.49372367298115e-22 -4.39139172832338e-07)
(2.03273375976605e-07 7.02674474712456e-11 2.79490763428603e-22 2.03273793998686e-07 1.70303889590251e-22 -4.0654716997529e-07)
(1.8673927462343e-07 6.76875082367654e-11 3.11534740272683e-24 1.86739716186716e-07 -1.67379722691277e-22 -3.73478990810146e-07)
(1.70267158983412e-07 6.42769784385674e-11 2.29695902458556e-28 1.70267614797393e-07 -4.84778280547496e-28 -3.40534773780805e-07)
(1.54115837040212e-07 6.02826046581371e-11 2.0384592457643e-28 1.54116298506998e-07 2.7675438128107e-28 -3.0823213554721e-07)
(1.38500996390036e-07 5.59340129970513e-11 -1.75267519855378e-27 1.38501456009671e-07 -1.9518027986619e-28 -2.77002452399707e-07)
(1.23595790279096e-07 5.14044058266951e-11 -2.65938278066642e-27 1.23596241620989e-07 -4.05054671981153e-28 -2.47192031900085e-07)
(1.09532913056222e-07 4.68665627424236e-11 1.50984524897251e-28 1.09533351101557e-07 4.20034343537909e-28 -2.19066264157778e-07)
(9.64080424998315e-08 4.24172087630941e-11 1.04595810620107e-27 9.64084631999556e-08 -3.38416713352471e-28 -1.92816505699787e-07)
(8.42835083853568e-08 3.81609615756515e-11 -3.22912894341863e-27 8.42839089567548e-08 7.61578345217769e-29 -1.68567417342112e-07)
(7.31909543092769e-08 3.41417836227679e-11 -1.72638463599467e-27 7.31913327868428e-08 3.02573339329831e-28 -1.4638228709612e-07)
(6.3135048004625e-08 3.04167916671507e-11 3.47920440460598e-27 6.31354035105425e-08 -1.60048555726957e-28 -1.26270451515168e-07)
(5.40974886395079e-08 2.69859751895375e-11 2.40015493928393e-30 5.40978207935668e-08 3.71979528839248e-28 -1.08195309433075e-07)
(4.60415965815652e-08 2.38758831547792e-11 3.48079975388777e-27 4.60419058529836e-08 -1.74818376846436e-28 -9.20835024345488e-08)
(3.89167508209277e-08 2.10598260501602e-11 -3.13577182992976e-27 3.89170378347113e-08 -4.44796548218547e-28 -7.7833788655639e-08)
(3.26628993472029e-08 1.85425497439247e-11 2.81584768015086e-30 3.2663165272824e-08 2.68184028632513e-28 -6.5326064620027e-08)
(2.72140891168661e-08 1.62921648798608e-11 0 2.72143351001156e-08 0 -5.44284242169817e-08)
(2.25020750377669e-08 1.42949194131484e-11 0 2.25023024098364e-08 0 -4.50043774476034e-08)
(1.8458118663578e-08 1.25202068289976e-11 0 1.84583286433776e-08 0 -3.69164473069557e-08)
(1.50144013850432e-08 1.09507358099767e-11 -1.40315707716839e-24 1.50145952665101e-08 -6.49788161473236e-23 -3.00289966515532e-08)
(1.21049446881213e-08 9.5605612161011e-12 -2.77050169694289e-23 1.21051236563558e-08 -1.36001045249066e-22 -2.42100683444771e-08)
(9.66669498271216e-09 8.33141009201853e-12 -2.81632897899598e-23 9.66686020791388e-09 -3.42614140401774e-23 -1.9333555190626e-08)
(7.64030845358218e-09 7.2446947724825e-12 -2.33839527009524e-24 7.64046103275867e-09 7.39915864056054e-23 -1.52807694863408e-08)
(5.97102061019682e-09 6.28130486096563e-12 1.03000091363313e-24 5.97116149243535e-09 3.78942454966686e-23 -1.19421821026322e-08)
(4.60889179462892e-09 5.43008025910933e-12 -4.13554134479463e-27 4.60902190935458e-09 -4.92241674635194e-28 -9.2179137039835e-09)
(3.5089225826175e-09 4.67229491491168e-12 6.10651757814848e-30 3.50904261740895e-09 3.29271186089834e-29 -7.01796520002645e-09)
(2.63074611310497e-09 4.00568553253763e-12 -8.82729968065395e-25 2.63085689488622e-09 -2.56864375397301e-23 -5.26160300799119e-09)
(1.93864252780518e-09 3.40871109659761e-12 5.09973250394608e-24 1.93874445535413e-09 -2.4697718395753e-23 -3.87738698315932e-09)
(1.40098834613712e-09 2.88977646158964e-12 1.15065121927945e-23 1.40108222719499e-09 1.54939494200483e-23 -2.80207057333212e-09)
(9.9042853561058e-10 2.42110358408753e-12 5.09086240664699e-25 9.90514372250531e-10 1.44937544396431e-23 -1.98094290786111e-09)
(6.82997805119354e-10 2.02324047801572e-12 -1.52159909621887e-27 6.83076417451301e-10 1.14436805492908e-28 -1.36607422257066e-09)
(4.5845571399494e-10 1.66151949995437e-12 -2.25091090734584e-28 4.58526553547082e-10 9.30410129899947e-30 -9.16982267542021e-10)
(2.99077042627246e-10 1.37300378384797e-12 1.1572672926305e-27 2.99141161817446e-10 2.7136308651995e-29 -5.98218204444691e-10)
(1.90280896543667e-10 1.11707727250859e-12 3.236706768839e-27 1.90337212125903e-10 -1.40234717528574e-28 -3.8061810866957e-10)
(1.19358125497988e-10 9.23601548621342e-13 -3.70806865083357e-27 1.19406706045977e-10 -1.01665189186141e-28 -2.38764831543964e-10)
(7.62479037558678e-11 7.6079979075798e-13 9.39105673863091e-28 7.62859427427147e-11 2.93924250986328e-28 -1.52533846498582e-10)
(5.29515253407815e-11 6.6774624954604e-13 7.55198561724929e-28 5.2977169424589e-11 -2.04248835914924e-28 -1.0592869476537e-10)
(4.41905194565276e-11 6.52802002365569e-13 -2.16390039700927e-27 4.41993858031107e-11 -1.35371182785191e-29 -8.83899052596383e-11)
(4.91718417817946e-11 6.74761507759853e-13 2.36756464396539e-27 4.91585781680664e-11 1.07193856075052e-28 -9.8330419949861e-11)
(7.18873392842499e-11 1.23716654024993e-12 -9.82053381403929e-28 7.18108984570198e-11 -4.45762416898308e-29 -1.4369823774127e-10)
(1.64064443337342e-10 -3.53220686741856e-13 -4.61191655485556e-30 1.64031715373135e-10 -1.22261931184431e-28 -3.28096158710477e-10)
(2.07788737342371e-10 -1.69935224801288e-12 -7.47719708760934e-27 2.06919986552877e-10 3.66655118489526e-26 -4.14708723895248e-10)
(1.63530090105383e-10 -5.75280337399086e-12 3.26629819615502e-25 1.58288570284524e-10 7.24557285946807e-26 -3.21818660389907e-10)
(9.74353713705616e-11 -5.3301165842027e-12 -2.92204145233018e-25 9.01285615484374e-11 -7.24207345319319e-26 -1.87563932918999e-10)
(2.20476222129832e-11 -2.79843965430625e-12 4.15283351746496e-25 1.65222650706505e-11 2.16364843507078e-25 -3.85698872836337e-11)
(3.20230862542662e-12 1.53953229100389e-12 -1.11342187271936e-25 6.14619687066576e-12 -1.05629258106054e-26 -9.34850549609238e-12)
(9.39579609010067e-11 5.91032589090563e-12 3.87344038518591e-25 1.11036439610442e-10 1.85591530479747e-25 -2.04994400511448e-10)
(4.79399892629386e-10 1.06431111174777e-11 -8.36480010932556e-25 5.19146833166523e-10 -4.77260683258789e-25 -9.98546725795909e-10)
(1.55471888170448e-09 1.4098453434406e-11 -4.15543984078129e-25 1.61996084748244e-09 5.6970681106991e-27 -3.17467972918691e-09)
(4.00889213998487e-09 1.20574767094925e-11 2.7324829377954e-24 4.07524848931037e-09 1.47915117410714e-24 -8.08414062929523e-09)
(8.82454173919941e-09 1.8742403339835e-12 -3.69042077875158e-24 8.83630582984022e-09 -3.04606877981045e-24 -1.76608475690396e-08)
(1.73176132730668e-08 -2.46039095649544e-11 4.6027362216761e-25 1.71495837064394e-08 -1.73108474218023e-25 -3.44671969795062e-08)
(2.93409744420109e-08 -5.86844465612226e-11 -6.4402288189801e-24 2.89228464946808e-08 -5.44415674752889e-24 -5.82638209366918e-08)
(4.36426760377478e-08 -9.97505100347138e-11 2.31676683541892e-25 4.29034621910533e-08 1.43614151750029e-24 -8.6546138228801e-08)
(6.0949458352459e-08 -1.48981514523383e-10 2.12164526320238e-25 5.97833390097774e-08 1.90547269579601e-24 -1.20732797362236e-07)
(8.29102810360569e-08 -2.09044424876835e-10 1.40960015929295e-25 8.11488166407764e-08 2.4665704359772e-24 -1.64059097676833e-07)
(1.1355881019465e-07 -2.97396977528854e-10 -1.53564412048239e-23 1.10804571432643e-07 -7.20725597582949e-24 -2.24363381627292e-07)
(1.62758440290978e-07 -4.46481630298008e-10 -1.88962081853448e-24 1.58113710609331e-07 -3.59489161467213e-24 -3.20872150900309e-07)
(2.67058937793212e-07 -8.63393078493247e-10 -1.45133153020711e-23 2.5725133079578e-07 -2.16953534309545e-23 -5.24310268588992e-07)
(4.93814497149383e-07 -2.02653836454765e-09 -2.00933160399221e-23 4.72336543370483e-07 -1.71689600492408e-23 -9.66151040519866e-07)
(9.53883930072012e-07 -5.29799706221497e-09 2.21403256590213e-23 9.09152396668755e-07 2.07812113798826e-23 -1.86303632674077e-06)
(2.0375379113315e-06 -1.67751928707827e-08 2.76394561540081e-24 1.93637510146302e-06 -1.45726461393022e-24 -3.97391301279452e-06)
(4.46920560732154e-06 -5.02991696607028e-08 -8.22507983937395e-24 4.26899260329456e-06 -8.32916558611573e-24 -8.7381982106161e-06)
(9.23017849376781e-06 -1.32156484409762e-07 -8.9004673517333e-23 8.91437864207972e-06 -4.61922058866738e-23 -1.81445571358475e-05)
(8.42787955800797e-06 -6.5952407318004e-08 1.96674111479641e-23 8.34573646372902e-06 -8.3376257295524e-23 -1.6773616021737e-05)
(2.60385567964476e-06 -1.32780849586876e-08 -6.7398842168469e-25 2.59646657602164e-06 2.30562967136535e-24 -5.2003222556664e-06)
(3.27484100552774e-07 9.66548988389719e-10 1.08316455278942e-24 3.2763225710598e-07 5.58687210780383e-26 -6.55116357658754e-07)
(8.95104238934432e-08 4.30792959528344e-10 2.82741892555577e-28 8.95174624572916e-08 -2.01249002969153e-26 -1.79027886350735e-07)
(3.03706986216093e-05 -4.0046946748264e-07 -2.99649506852595e-26 3.03792000787556e-05 1.21783470461968e-26 -6.07498987003649e-05)
(2.41676941171963e-05 -3.23563038702384e-07 -8.47813725247993e-23 2.41926260542387e-05 3.18054945356971e-23 -4.8360320171435e-05)
(8.02942942468587e-06 7.71269637641234e-09 -7.39368971768209e-22 8.02689073675618e-06 -4.12684949617221e-21 -1.6056320161442e-05)
(4.22312499731876e-07 6.42475047341542e-09 7.28303222316162e-21 4.18255119951562e-07 -3.62799956800734e-21 -8.40567619683438e-07)
(2.24871685873986e-08 -6.35012805570496e-10 -6.86552103228259e-22 2.46215822690989e-08 -1.45348070308716e-22 -4.71087508564975e-08)
(9.18808212821392e-09 -9.25402887833773e-11 -7.7816285217025e-24 9.54434993172258e-09 -3.99629719812732e-24 -1.87324320599365e-08)
(2.29764645047404e-09 -1.65690369812573e-11 3.69717475607434e-26 2.38822917987751e-09 -2.11305765505163e-26 -4.68587563035155e-09)
(7.86371122259821e-10 -2.8518048050757e-12 1.26368330787814e-25 8.08654848538343e-10 5.40012457705848e-26 -1.59502597079816e-09)
(4.31882851265002e-10 -1.1678312356803e-12 -9.12434855103437e-25 4.43336927567869e-10 -2.74700058682012e-24 -8.75219778832871e-10)
(2.81752994601149e-10 -4.19764163704723e-13 -1.02455282306043e-24 2.8616704500997e-10 -1.42541495259672e-24 -5.67920039611119e-10)
(2.16395481534166e-10 -1.79450650956923e-13 -1.25853102532634e-26 2.18156608059881e-10 -3.01636399656589e-27 -4.34552089594047e-10)
(2.29871752009824e-10 1.9251624615846e-14 -1.73345258181412e-30 2.29694117547704e-10 -2.71665440773341e-30 -4.59565869557528e-10)
(3.1236133691928e-10 2.95053696432487e-13 5.32244587113202e-28 3.09747438168261e-10 1.53878831856796e-28 -6.22108775087541e-10)
(5.38324930411497e-10 7.71830746347601e-13 -3.67285355124789e-27 5.31542372165473e-10 2.73544496294402e-26 -1.06986730257697e-09)
(1.1345613336841e-09 1.79065718154274e-12 -5.53786541191205e-26 1.11883791579761e-09 -3.85788164747946e-26 -2.25339924948172e-09)
(2.634989662439e-09 3.11562102461647e-12 2.48832515100064e-27 2.60786585444494e-09 7.55514125527054e-28 -5.24285551688394e-09)
(6.0650552618159e-09 4.74703962068825e-12 -1.25636502356542e-25 6.02530165975858e-09 -3.35274186640641e-26 -1.20903569215745e-08)
(1.30225728153095e-08 4.43092686369393e-12 4.53306767857263e-25 1.29890934128422e-08 -1.60867294730574e-26 -2.60116662281517e-08)
(2.58912817976159e-08 -1.54969932403085e-12 -3.35391819724744e-25 2.59012622966464e-08 2.10393771183043e-25 -5.17925440942622e-08)
(4.72748742159901e-08 -1.87267863774193e-11 -5.30809924385889e-25 4.73731552232732e-08 5.0145383149078e-25 -9.46480294392632e-08)
(7.95291955183477e-08 -4.81527432994776e-12 2.01164852113292e-24 7.95491163029808e-08 3.94709747026045e-25 -1.59078311821329e-07)
(1.24971062383124e-07 1.09767325816903e-10 -1.62706900068505e-24 1.2462170664401e-07 -2.69509174930592e-24 -2.49592769027134e-07)
(1.86741247724306e-07 4.45254384619919e-10 1.40799291867301e-24 1.856624819032e-07 -8.37765653264216e-24 -3.72403729627506e-07)
(2.65174358944435e-07 1.27418752915646e-09 6.87898554539919e-24 2.62859570900521e-07 -2.28544950141027e-24 -5.28033929844956e-07)
(3.55369271655392e-07 2.66254728208352e-09 -1.75019393358723e-24 3.51867999553633e-07 -5.90183857540267e-24 -7.07237271209024e-07)
(4.55535617189904e-07 3.47173611074007e-09 -5.01149319209865e-23 4.52456334483363e-07 -1.05801768103012e-22 -9.07991951673267e-07)
(6.01046625245694e-07 9.99184792678262e-09 -1.35886507773212e-21 5.9567310215352e-07 -6.06128861310118e-22 -1.19671972739921e-06)
(8.38734063521949e-07 8.58541141646557e-09 -1.35974817229928e-21 8.36449174849137e-07 -6.04048687294345e-22 -1.67518323837109e-06)
(1.50903293088384e-06 1.34798465228726e-08 -2.49142947814568e-24 1.50710703549939e-06 2.22206093496029e-22 -3.01613996638324e-06)
(2.69168322912646e-06 2.75812483024502e-08 5.23599923731508e-32 2.68884563316291e-06 -1.8160695334209e-30 -5.38052886228937e-06)
(4.03451353834166e-06 3.56144101218132e-08 1.87997045261105e-23 4.0319463868647e-06 -4.82929076586181e-22 -8.06645992520635e-06)
(5.46619095017586e-06 4.60879124314477e-08 -6.40216868144359e-21 5.46371365548414e-06 -1.1623864055754e-20 -1.092990460566e-05)
(6.93251655924665e-06 5.40430279022381e-08 -9.38218575232078e-21 6.93030806076757e-06 -1.3446596173013e-20 -1.38628246200142e-05)
(8.39785663118927e-06 6.16012804059007e-08 -5.52764746153732e-23 8.39590772460702e-06 1.02425155377387e-21 -1.67937643557963e-05)
(9.83075144826868e-06 6.75800722641315e-08 1.24135458408754e-26 9.82908990079994e-06 8.52362675126322e-25 -1.96598413490686e-05)
(1.12087968167155e-05 7.24969311469084e-08 3.11120408907309e-26 1.12074202658616e-05 7.99589467946266e-25 -2.2416217082577e-05)
(1.25102542291787e-05 7.60122651511576e-08 -2.2957168664837e-26 1.25091635223504e-05 -1.05159784138729e-24 -2.50194177515291e-05)
(1.37175048359229e-05 7.82869602794327e-08 -2.04524756301943e-22 1.37166922613325e-05 3.95583025009521e-21 -2.74341970972554e-05)
(1.48145566507237e-05 7.9264522717092e-08 4.72050264984412e-20 1.48140113934381e-05 4.00862500444924e-20 -2.96285680441618e-05)
(1.57886385925008e-05 7.90555562055038e-08 5.871577004279e-20 1.57883447681789e-05 3.32168213744268e-20 -3.15769833606797e-05)
(1.66300066265771e-05 7.77325266559718e-08 2.76823617542943e-22 1.66299443500522e-05 -5.43705647921881e-21 -3.32599509766292e-05)
(1.73331068677025e-05 7.54661199736248e-08 -5.87931136492303e-25 1.73332526167426e-05 -7.65825575489244e-25 -3.4666359484445e-05)
(1.78950309860064e-05 7.24572890913753e-08 1.04571242643784e-24 1.78953592711932e-05 2.0261762245607e-25 -3.57903902571997e-05)
(1.83085326987119e-05 6.86905190054155e-08 -1.3163265096054e-24 1.83090171855675e-05 9.57854853199327e-25 -3.66175498842794e-05)
(1.8557878449847e-05 6.41257332062606e-08 7.12351379700711e-25 1.85584893489161e-05 4.46575977601276e-25 -3.71163677987631e-05)
(1.86308878492868e-05 5.89729255146849e-08 5.68200282712453e-22 1.86315915732089e-05 -1.35228972111251e-20 -3.72624794224956e-05)
(1.85503806048864e-05 5.3518061151139e-08 -1.5886283454283e-19 1.85511448726623e-05 -6.78952886327046e-20 -3.71015254775487e-05)
(1.83235971217563e-05 4.78480225076049e-08 -1.76083138129795e-19 1.83243909037944e-05 -3.90485497448451e-20 -3.66479880255507e-05)
(1.79609991692006e-05 4.21028919899221e-08 -6.06614156698148e-22 1.79617936619711e-05 1.49997490476637e-20 -3.59227928311717e-05)
(1.74747969548984e-05 3.64016818522984e-08 1.09341792613748e-24 1.74755662353776e-05 3.02094900712049e-25 -3.49503631902761e-05)
(1.68785755924834e-05 3.08488114028064e-08 -1.21473638584242e-24 1.68792970797248e-05 2.77536272169213e-25 -3.37578726722082e-05)
(1.61869039956111e-05 2.5532603833381e-08 6.68960680915949e-22 1.61875587491799e-05 -1.99547459330935e-20 -3.23744627447911e-05)
(1.54149442801127e-05 2.05248922260111e-08 -2.28796366966879e-19 1.54155171382343e-05 -6.83375724863208e-20 -3.0830461418347e-05)
(1.45780782282477e-05 1.58813751320711e-08 -2.39697457155713e-19 1.45785578058925e-05 -2.64877798565331e-20 -2.91566360341402e-05)
(1.36915561301005e-05 1.16424120006415e-08 -6.29650860015574e-22 1.36919346940982e-05 1.9892332484687e-20 -2.73834908241986e-05)
(1.27701783548039e-05 7.83428033556524e-09 1.86710396123129e-26 1.27704515988226e-05 -6.50269488784855e-26 -2.55406299536264e-05)
(1.18280220885888e-05 4.46985344530819e-09 1.80739785776965e-26 1.18281888026989e-05 -7.62372128252667e-26 -2.36562108912876e-05)
(1.08782297650808e-05 1.55214729656828e-09 -7.37153814952846e-25 1.08782915245224e-05 -1.4128494237616e-25 -2.17565212896033e-05)
(9.93285488158095e-06 -9.27943548713712e-10 5.66664469711449e-25 9.93281556347174e-06 8.89860891998393e-26 -1.98656704450527e-05)
(9.0027914840742e-06 -2.98336801016569e-09 -1.89618067283699e-25 9.00265705282324e-06 -3.26372368701142e-26 -1.80054485368974e-05)
(8.09771106657308e-06 -4.63870194454569e-09 5.5311131194188e-27 8.09748898347554e-06 2.46246778107854e-26 -1.61952000500486e-05)
(7.22604502293146e-06 -5.91840277279809e-09 3.67997733894192e-25 7.22574410926759e-06 -1.01978060166809e-25 -1.4451789132199e-05)
(6.39489096542622e-06 -6.85536713491242e-09 -7.01847004411686e-25 6.39452081173582e-06 -2.04805761715602e-26 -1.2789411777162e-05)
(5.60999760012349e-06 -7.48015820264538e-09 9.27216517422546e-27 5.60956845757327e-06 1.40739158262765e-25 -1.12195660576968e-05)
(4.87575822692031e-06 -7.8305321499783e-09 3.00201296202847e-25 4.87528037633067e-06 -4.91113702710114e-26 -9.75103860325098e-06)
(4.19529851380603e-06 -7.93856043490903e-09 -6.44688034294417e-25 4.19478233870547e-06 -2.11627560469018e-26 -8.3900808525115e-06)
(3.57056038005408e-06 -7.84276202234309e-09 1.15834735389243e-24 3.57001574836491e-06 4.06446538382028e-26 -7.14057612841899e-06)
(3.00246214104925e-06 -7.57428332317206e-09 -5.1949852825728e-25 3.00189864985947e-06 -1.95428731755966e-26 -6.00436079090872e-06)
(2.4910218781669e-06 -7.16816517263756e-09 5.00089728043016e-25 2.49044840329993e-06 2.02445987633263e-26 -4.98147028146683e-06)
(2.03552175883102e-06 -6.65392186473421e-09 1.06422251997073e-26 2.03494663174883e-06 4.65736356212323e-28 -4.07046839057985e-06)
(1.63458708168053e-06 -6.061684130086e-09 4.41201956260352e-25 1.63401777528949e-06 -1.62281760708876e-25 -3.26860485697002e-06)
(1.28625831774713e-06 -5.41674668199736e-09 -2.7791324810536e-22 1.28570154856445e-06 1.37169056478814e-20 -2.57195986631159e-06)
(9.88051677870757e-07 -4.74356589832256e-09 1.23968509189851e-19 9.87513181249717e-07 3.60100180178461e-20 -1.97556485912047e-06)
(7.37049541713431e-07 -4.06261674401428e-09 2.17879091346886e-19 7.36534160866344e-07 2.12730357316721e-20 -1.47358370257978e-06)
(5.29993057209229e-07 -3.3918935721703e-09 9.39827198026965e-20 5.29504745329735e-07 -8.49236196972824e-21 -1.05949780253896e-06)
(3.63383701972177e-07 -2.7470086050091e-09 3.31010833190412e-22 3.62925501374405e-07 -7.57733658850162e-21 -7.26309203346581e-07)
(2.33553105793432e-07 -2.13960987924399e-09 1.11110017758949e-24 2.33127358931474e-07 -1.18396628538761e-25 -4.66680464724906e-07)
(1.36719671050258e-07 -1.58019854915185e-09 -2.96689106953693e-25 1.36327754221706e-07 -1.16274241668902e-25 -2.73047425271964e-07)
(6.90264332230236e-08 -1.07411454156164e-09 -4.21192853704938e-22 6.86693309827484e-08 3.68322285392616e-21 -1.37695764205772e-07)
(2.65900781867686e-08 -6.27093832871692e-10 2.09782973413623e-20 2.62676259585657e-08 8.23362531391574e-21 -5.28577041453343e-08)
(5.52131879130179e-09 -2.39024259706586e-10 8.9640581991695e-21 5.23358721671843e-09 4.44926960737843e-21 -1.07549060080202e-08)
(1.95870620236373e-09 8.94861857720145e-11 5.0452176420956e-22 1.70425499999753e-09 3.20898173402433e-22 -3.66296120236126e-09)
(1.20611541527346e-08 3.60815837206997e-10 2.14879706788785e-26 1.18400232804964e-08 1.55421745913074e-26 -2.39011774332309e-08)
(3.19907997096917e-08 5.81287513104846e-10 5.74113976573801e-25 3.1800819080823e-08 -1.57203713181828e-25 -6.37916187905147e-08)
(5.79269452482027e-08 7.5196297872141e-10 -8.59228715545147e-25 5.77681290138718e-08 -8.81187975960997e-26 -1.15695074262075e-07)
(8.59477620494086e-08 8.95119188613461e-10 9.20998720998877e-25 8.58175180391904e-08 1.3933298828916e-25 -1.71765280088599e-07)
(1.12183573939192e-07 9.96797724754748e-10 -2.64817608330517e-24 1.12083970703509e-07 2.60134965033732e-25 -2.242675446427e-07)
(1.32568714774228e-07 1.08889782362767e-09 1.76315998601308e-24 1.32500900947995e-07 -1.85914286584147e-25 -2.65069615722223e-07)
(1.43302870408872e-07 1.14712522541773e-09 1.86424153392496e-24 1.43272702048191e-07 1.151360662396e-25 -2.86575572457063e-07)
(1.41000489554165e-07 1.18958951825362e-09 -2.89080037797859e-24 1.41017952134193e-07 -2.91316743234068e-25 -2.82018441688359e-07)
(1.23665584677646e-07 1.2616565564656e-09 9.23644765597609e-25 1.23754016717835e-07 3.01888963152395e-26 -2.4741960139548e-07)
(8.9220619584462e-08 7.54566096121071e-10 3.30122391521369e-26 8.93536747748241e-08 2.03157658135252e-25 -1.78574294359286e-07)
(4.98324824131823e-08 9.31613587738058e-10 1.27021346384378e-23 5.01610365122999e-08 1.65452289289761e-24 -9.99935189254821e-08)
(4.89156269576907e-08 -1.40662969972376e-09 1.03416208176646e-22 4.82789551199601e-08 1.0745524819466e-23 -9.71945820776508e-08)
(7.24530520236429e-08 -2.47354680063203e-09 1.88096468761285e-22 7.07428450181426e-08 4.69312201333931e-23 -1.43195897041785e-07)
(1.22173912640341e-07 -6.06466999628718e-09 -1.26004169741108e-22 1.16104801790351e-07 -8.32624873554579e-23 -2.38278714430692e-07)
(2.10860135865639e-07 -9.08804457286801e-09 6.240640361725e-22 1.98219729355463e-07 1.21921097137739e-22 -4.09079865221102e-07)
(3.57480428737008e-07 -1.29678988441211e-08 7.34806014230775e-22 3.33380186496993e-07 3.38859197039721e-22 -6.90860615234001e-07)
(5.88256314484611e-07 -1.52268416355404e-08 -9.57259165670587e-22 5.51450706286282e-07 -3.86315204361104e-22 -1.13970702077089e-06)
(9.59641165779849e-07 -1.64342307926604e-08 1.23815138051917e-21 9.0902935351437e-07 4.64400959345446e-22 -1.86867051929422e-06)
(1.51190943273588e-06 -1.39601212936655e-08 -1.39185031359987e-21 1.4585197662067e-06 -7.2176757925503e-22 -2.97042919894258e-06)
(2.28923116247046e-06 -9.33364271790964e-09 -1.49037757584815e-21 2.24621236385431e-06 -9.28896297004242e-22 -4.53544352632477e-06)
(3.29386117932604e-06 -1.74759194252987e-09 8.60787289290942e-22 3.28447681575851e-06 7.3692585413814e-22 -6.57833799508455e-06)
(4.51383214100949e-06 6.61387970968485e-09 -1.29763999698351e-21 4.55364197091538e-06 -6.72944321855456e-22 -9.06747411192488e-06)
(5.77073615162765e-06 1.55309409634071e-08 1.64409036208382e-21 5.87145933126686e-06 1.35477284897548e-21 -1.16421954828945e-05)