/*--------------------------------*- C++ -*----------------------------------*\
| =========                 |                                                 |
| \\      /  F ield         | OpenFOAM: The Open Source CFD Toolbox           |
|  \\    /   O peration     | Version:  2.4.0                                 |
|   \\  /    A nd           | Web:      www.OpenFOAM.org                      |
|    \\/     M anipulation  |                                                 |
\*---------------------------------------------------------------------------*/
FoamFile
{
    version     2.0;
    format      ascii;
    class       volSymmTensorField;
    location    "18000";
    object      aij;
}
// * * * * * * * * * * * * * * * * * * * * * * * * * * * * * * * * * * * * * //

dimensions      [0 2 -2 0 0 0 0];

internalField   nonuniform List<symmTensor> 
15600
(
(9.82680218807855e-08 -2.94879831007598e-06 -1.03516477623784e-25 1.17342471546281e-07 1.13444063229157e-26 -2.46418691936169e-07)
(1.17850508230207e-08 -4.07760099591273e-06 -1.41494567132441e-24 3.49924466367713e-07 -2.44623724969524e-24 -3.76357324088884e-07)
(-1.88255374268195e-07 -1.04218582420516e-06 -1.79356164166798e-25 2.41917598942663e-07 1.19383030326525e-26 -6.60888098099091e-08)
(4.67405246516454e-09 -2.59803235310876e-09 1.71986410921445e-22 -2.86087368617812e-09 6.10155656279375e-22 -8.15249572244879e-12)
(1.68119189506078e-07 1.32815140325471e-07 3.89184296012729e-22 -1.56866069833905e-07 7.32412997982584e-22 -6.35640405378321e-09)
(8.02935464812419e-08 3.9834570103187e-08 -9.02957145476579e-25 -7.66486433737935e-08 -2.37059201555217e-25 -2.11964464606025e-09)
(2.14578337936299e-08 7.07315122483785e-09 -6.48627323188503e-26 -2.08099696039655e-08 -8.78523717428594e-26 -3.44444597749274e-10)
(9.41650909119867e-09 2.18702370176827e-09 -3.49955285405236e-25 -9.16074588554797e-09 3.02116913296537e-26 -1.13236128601058e-10)
(4.3016063322445e-09 7.88126215489315e-10 7.32192637187258e-24 -4.21657439757349e-09 -4.17632180657633e-24 -4.06272102409191e-11)
(2.37600434622551e-09 4.05875758050014e-10 3.76784474918076e-24 -2.33540201653232e-09 -2.7606041505903e-24 -1.90433346772477e-11)
(1.3422792694247e-09 2.4966271803351e-10 1.75408023100382e-26 -1.32840210984401e-09 -5.61753416679431e-28 -9.35576633591339e-12)
(1.04318088603333e-09 2.1419157876528e-10 2.92821160338394e-31 -1.03659200935555e-09 -2.43003070897849e-30 -6.99977096362072e-12)
(1.00193704969166e-09 2.21086308967003e-10 4.13834917736709e-28 -9.99534076469312e-10 -2.1285511499981e-29 -6.91824357091994e-12)
(1.28915413351528e-09 2.97347835491934e-10 1.16208314104625e-26 -1.28897104887831e-09 1.36278550486094e-26 -1.00423792473693e-11)
(2.17789537138921e-09 5.1814692632437e-10 -2.99657315866303e-27 -2.17529661544432e-09 -2.70328960439225e-26 -2.08098909908983e-11)
(4.31912503876083e-09 1.05353315320304e-09 5.55235891255686e-28 -4.29872461876038e-09 -1.10117558830429e-29 -5.29706899371536e-11)
(8.54224051139605e-09 2.16363624896441e-09 2.90670616906457e-26 -8.45487814133487e-09 -4.7994773987286e-26 -1.33763631961932e-10)
(1.53661957420245e-08 4.26237958458223e-09 -1.12480696440114e-25 -1.51284710282557e-08 2.73612125366012e-26 -2.99365794858553e-10)
(2.50713193935925e-08 8.02245809718842e-09 1.10205223916841e-25 -2.45518552253672e-08 9.91245120596904e-26 -5.93144537521991e-10)
(3.63458472366641e-08 1.40035697198761e-08 8.93375590380385e-26 -3.54280792453432e-08 1.73749883372969e-25 -1.01715676889718e-09)
(4.59378331696227e-08 2.20669269779952e-08 -2.28695373114504e-25 -4.46173528254283e-08 2.53511993524988e-25 -1.48457476142299e-09)
(5.16950044156144e-08 3.18985314366733e-08 3.30620465544763e-25 -5.01006269292497e-08 -2.98404054791742e-25 -1.91868565143834e-09)
(5.38733610268143e-08 4.32830182654611e-08 -4.5942156704061e-25 -5.20903295948102e-08 -6.4938266479464e-25 -2.32541029935176e-09)
(5.08061236372026e-08 5.39153596090986e-08 -2.92034435027158e-25 -4.89789082191722e-08 -6.38976448905269e-25 -2.59352304630065e-09)
(4.2020069708474e-08 6.09608122084065e-08 -9.84924235854305e-26 -4.03566346365433e-08 -4.64438966532093e-25 -2.62623150783216e-09)
(2.96531140950007e-08 6.36744222562462e-08 5.89676762843335e-24 -2.84274940698083e-08 2.79144774097826e-25 -2.4716858299171e-09)
(1.56622112977671e-08 5.69522419948763e-08 3.11668237317857e-23 -1.44827544443831e-08 -1.45502995471241e-23 -2.00218772960445e-09)
(9.77240394141011e-09 8.03887143351333e-08 3.37136912968441e-23 -7.78443906563089e-09 -6.82513271708529e-24 -3.18763360350516e-09)
(1.42963847724492e-08 2.3055688624599e-07 -1.03913055892899e-23 -3.31422216016002e-09 -3.1576572565833e-26 -1.29321802030276e-08)
(3.06380194005533e-08 5.17377077936297e-07 4.88621744910645e-32 4.52342827495364e-09 1.45870381034086e-33 -3.73335318212741e-08)
(4.92200167614445e-08 8.51722546643592e-07 2.84907760904174e-23 1.95039711692851e-08 1.5118012266803e-24 -7.16548263367848e-08)
(7.21702155064231e-08 1.22783853784312e-06 7.45292680254644e-22 4.03134931286804e-08 9.71172358374099e-23 -1.15434985905018e-07)
(9.68149983785959e-08 1.61253468179538e-06 8.87085027753359e-22 6.46008095508062e-08 1.60231912653576e-22 -1.6449906158094e-07)
(1.22801104518914e-07 1.99689274476597e-06 -6.19662828694749e-23 9.11875076515546e-08 -5.94851637907312e-24 -2.16965065011577e-07)
(1.48914332870079e-07 2.36875524973141e-06 3.55546079689281e-27 1.18643806879587e-07 2.07441777058914e-26 -2.7040555882961e-07)
(1.74532355769565e-07 2.72271256717636e-06 5.74919999629789e-27 1.46142613982815e-07 3.22532088596231e-26 -3.23288687297105e-07)
(1.98880716694072e-07 3.0527888714917e-06 -3.87707654306793e-27 1.72810211368845e-07 -3.41432708421479e-26 -3.74037284008719e-07)
(2.21406889863503e-07 3.35515495705716e-06 -2.33339466020302e-22 1.9801229692171e-07 -3.12229084178002e-23 -4.21451729699011e-07)
(2.41579185955349e-07 3.62619746368793e-06 -2.32591570164386e-21 2.21153309761337e-07 -6.72842434150929e-22 -4.64434274549283e-07)
(2.58995214262925e-07 3.86331902402742e-06 -1.95042069287433e-21 2.41770437234573e-07 -7.64773193486532e-22 -5.0212404167487e-07)
(2.73335388012893e-07 4.06450884863556e-06 3.12007350435984e-22 2.59480246965886e-07 4.61212122732906e-23 -5.33834771253341e-07)
(2.84398979515936e-07 4.22866213647574e-06 8.02172870861326e-27 2.74017609261403e-07 8.52911162645847e-27 -5.59110726002925e-07)
(2.92081013458332e-07 4.35539600178981e-06 -2.73402173647079e-26 2.85222616875247e-07 -6.41330952152399e-26 -5.7770007761381e-07)
(2.96338111812453e-07 4.44462001252656e-06 4.0377874565866e-26 2.93050363814143e-07 1.27396502161636e-25 -5.89491723393122e-07)
(2.97112971105769e-07 4.4951987467027e-06 -2.46233716028885e-26 2.97367422692156e-07 -8.39113131019528e-27 -5.94302285666474e-07)
(2.94468444486971e-07 4.50671735516507e-06 7.28284147538578e-22 2.98129787446454e-07 1.18367408006299e-22 -5.92171098614473e-07)
(2.88755027958861e-07 4.48261641961803e-06 3.56555579572457e-21 2.95632455713563e-07 1.70035586201094e-21 -5.83749160438635e-07)
(2.80285912612322e-07 4.42533374933326e-06 2.05270184561544e-21 2.90138487071285e-07 1.64691040201416e-21 -5.69609623185376e-07)
(2.69428732642516e-07 4.33786677533558e-06 -7.91012015895484e-22 2.81976375787708e-07 -1.27220723445746e-22 -5.50447906892154e-07)
(2.56577475961417e-07 4.22351614460568e-06 -2.21162059308033e-26 2.715143085582e-07 -5.49774768617229e-26 -5.27024676739974e-07)
(2.4213938288441e-07 4.08579084589808e-06 2.13298780839163e-26 2.59142748610015e-07 1.10277743501613e-25 -5.0013538506078e-07)
(2.26519997528849e-07 3.92830671871342e-06 1.01683123463889e-21 2.45259411083582e-07 1.62559441085751e-22 -4.70580493502053e-07)
(2.10110273256306e-07 3.7546921452638e-06 3.38867952264278e-21 2.30255645043695e-07 2.04669666147895e-21 -4.39139172832338e-07)
(1.93275818155812e-07 3.56850309366208e-06 1.27127209371194e-21 2.14504895677137e-07 1.80879630659208e-21 -4.0654716997529e-07)
(1.76348363740751e-07 3.37314733923944e-06 -1.00473924407418e-21 1.98353281028093e-07 -1.51970278615688e-22 -3.73478990810146e-07)
(1.59619744692792e-07 3.17182023650611e-06 -2.78543569127238e-27 1.82112401372806e-07 9.30624372117059e-28 -3.40534773780805e-07)
(1.43338405239162e-07 2.96745538025058e-06 1.97515978894068e-27 1.66054445906756e-07 1.59197145061315e-27 -3.0823213554721e-07)
(1.27708330990066e-07 2.76268930921217e-06 -3.00331078194417e-27 1.50409835556841e-07 -1.18539233846879e-26 -2.77002452399707e-07)
(1.12890335181323e-07 2.55984738493622e-06 -5.37641650893058e-27 1.35366353411372e-07 -1.87770089930245e-26 -2.47192031900085e-07)
(9.90047745130886e-08 2.36094305891901e-06 3.16382342985441e-27 1.21071681741525e-07 1.51913509379872e-27 -2.19066264157778e-07)
(8.61353777532797e-08 2.16769162543687e-06 -1.528669375874e-27 1.07634862569364e-07 7.48794861289015e-27 -1.92816505699787e-07)
(7.43323646190411e-08 1.98152674198854e-06 -2.50140781725809e-27 9.51322319338753e-08 -2.52259982088977e-26 -1.68567417342112e-07)
(6.36149718717296e-08 1.80359440231778e-06 8.36426493622141e-28 8.36086554715616e-08 -1.38638562179465e-26 -1.4638228709612e-07)
(5.39756285224142e-08 1.63476103077109e-06 1.92477811923588e-27 7.30824175102574e-08 2.98602336956621e-26 -1.26270451515168e-07)
(4.53844260794266e-08 1.47562444636257e-06 3.38437386976577e-27 6.3546995556734e-08 4.14897526913346e-28 -1.08195309433075e-07)
(3.77941774404164e-08 1.32654007253686e-06 1.58827696420285e-27 5.49772456900461e-08 3.32427869147e-26 -9.20835024345488e-08)
(3.11453168985947e-08 1.18764874989277e-06 -7.44590888495915e-27 4.73311847421876e-08 -3.23741745216405e-26 -7.7833788655639e-08)
(2.53704367482124e-08 1.05891894847036e-06 2.90067981285372e-27 4.05567883008042e-08 3.19668381499288e-28 -6.5326064620027e-08)
(2.03981254809107e-08 9.40177968979317e-07 0 3.45931716002406e-08 0 -5.44284242169817e-08)
(1.61560612497721e-08 8.31161787904424e-07 0 2.93763509435672e-08 0 -4.50043774476034e-08)
(1.25719628604606e-08 7.31533454785838e-07 0 2.48407097202618e-08 0 -3.69164473069557e-08)
(9.57471935848173e-09 6.40897961650794e-07 -9.25759197251872e-22 2.09217410645567e-08 -9.3239930610013e-23 -3.00289966515532e-08)
(7.09545402406028e-09 5.58806451215117e-07 -2.11648046258883e-21 1.75559909860779e-08 -5.82173300830159e-22 -2.42100683444771e-08)
(5.06881255324602e-09 4.84770137651123e-07 -5.96267467675813e-22 1.46825805587796e-08 -5.10792511995971e-22 -1.9333555190626e-08)
(3.43414109519684e-09 4.18271261767585e-07 1.34829871300703e-21 1.22432747681992e-08 4.57521748252438e-23 -1.52807694863408e-08)
(2.13624770847644e-09 3.58786363513578e-07 7.59775772571134e-22 1.0183401471353e-08 6.71683758137459e-23 -1.19421821026322e-08)
(1.12537535246813e-09 3.05798145170783e-07 -1.39440493129663e-26 8.45286221568934e-09 -9.20857291264838e-26 -9.2179137039835e-09)
(3.56836889897929e-10 2.58807087153279e-07 8.1371640728966e-28 7.00578677350109e-09 1.93632405707745e-28 -7.01796520002645e-09)
(-2.08965422633718e-10 2.17329692756842e-07 -7.07855855407842e-22 5.80153397529603e-09 -5.99534958334036e-23 -5.26160300799119e-09)
(-6.07034972562795e-10 1.80910786349477e-07 -7.6544012197056e-22 4.80257367686625e-09 1.22217072489781e-22 -3.87738698315932e-09)
(-8.67294702335016e-10 1.49113515849674e-07 5.54683882970562e-22 3.9770020092869e-09 4.32819902071578e-22 -2.80207057333212e-09)
(-1.01555456027957e-09 1.21546377168665e-07 5.93006733121198e-22 3.29369213320815e-09 4.60686826805442e-23 -1.98094290786111e-09)
(-1.07274085136067e-09 9.78381282915654e-08 5.31776477777416e-27 2.72872689402371e-09 -7.2426383811705e-26 -1.36607422257066e-09)
(-1.05675936470369e-09 7.7685331904919e-08 5.63705871895251e-28 2.2553860060368e-09 -1.26918100396165e-26 -9.16982267542021e-10)
(-9.80869189199567e-10 6.07961215192676e-08 1.22501843203697e-27 1.85830585531857e-09 7.84773020050258e-26 -5.98218204444691e-10)
(-8.55772204839524e-10 4.69727201013448e-08 -1.47523721540887e-26 1.51227891103478e-09 2.65849087021567e-25 -3.8061810866957e-10)
(-6.88565912063271e-10 3.60229488959162e-08 -4.60616438858066e-27 1.20620635219963e-09 -3.73335685519539e-25 -2.38764831543964e-10)
(-4.81239535701068e-10 2.78632617049052e-08 3.40632244037299e-26 9.11886827346021e-10 1.15608405210128e-25 -1.52533846498582e-10)
(-2.36646158255045e-10 2.24570750034725e-08 -2.99362098825828e-26 6.25793898656802e-10 1.05912309359508e-25 -1.0592869476537e-10)
(5.59780836498401e-11 1.98218272716234e-08 -2.78720768806724e-27 3.25197831540838e-10 -3.23527178175844e-25 -8.83899052596383e-11)
(3.86457128023368e-10 2.0208153807782e-08 2.09833462647995e-26 -1.07693633863875e-11 3.24358686671666e-25 -9.8330419949861e-11)
(9.97058682552882e-10 2.34167832451497e-08 -9.42663336704505e-27 -4.49794448445796e-10 -1.06590489102554e-25 -1.4369823774127e-10)
(-1.50700444937315e-09 3.52491976913245e-08 -8.7461287783635e-27 1.75904004819635e-09 -8.55129321980452e-28 -3.28096158710477e-10)
(-1.0132684788465e-08 3.97727574980177e-08 2.45979178583536e-24 1.02001299750395e-08 1.54416613402309e-25 -4.14708723895248e-10)
(-1.58578386632127e-08 3.35717956885818e-08 -5.14671646089121e-24 1.47302452819347e-08 2.50497160082537e-23 -3.21818660389907e-10)
(-1.71413497335404e-08 2.37010615468004e-08 1.08214188890855e-23 1.53493372090673e-08 -2.87838632963218e-23 -1.87563932918999e-10)
(-1.04782573156554e-08 9.28954271191135e-09 -3.37772804584939e-23 7.86340715199882e-09 9.93422573663592e-23 -3.85698872836337e-11)
(2.99435267732487e-09 -4.62765132337162e-09 -2.76569487358676e-23 -5.85462594660232e-09 3.99862355025032e-23 -9.34850549609238e-12)
(2.29416947745721e-08 -1.68451938536613e-08 2.02449648244006e-23 -2.57341802780603e-08 -3.60171824724256e-23 -2.04994400511448e-10)
(6.31643204794391e-08 -3.44420718178639e-08 -2.54764227907566e-23 -6.54603800813161e-08 3.94324343589283e-23 -9.98546725795909e-10)
(1.3528317723349e-07 -5.8495441470147e-08 -1.22506801581914e-23 -1.35410172807896e-07 4.94860656446217e-24 -3.17467972918691e-09)
(2.54917887689179e-07 -9.15978947796416e-08 4.82727388739743e-23 -2.4917613213944e-07 -4.99600126644972e-23 -8.08414062929523e-09)
(4.38505105720962e-07 -1.36960722670334e-07 -4.78141065730283e-23 -4.21159648318711e-07 6.54642929179844e-23 -1.76608475690396e-08)
(7.03944983308029e-07 -2.00574133895447e-07 7.23379901518519e-24 -6.65852963077223e-07 3.32396228508243e-25 -3.44671969795062e-08)
(1.02442649814186e-06 -2.78303024351799e-07 -6.22471104608732e-23 -9.58488552212598e-07 7.67278640503846e-23 -5.82638209366918e-08)
(1.36823037882793e-06 -3.55952642274098e-07 -1.34829902733842e-24 -1.26960196754229e-06 -1.37631634967973e-23 -8.6546138228801e-08)
(1.76020063385962e-06 -4.32113839982315e-07 -2.34888507144104e-24 -1.62207339292725e-06 -1.63574998884626e-23 -1.20732797362236e-07)
(2.2374324698409e-06 -5.08707763515558e-07 -3.72627104969784e-24 -2.04907559447802e-06 -1.92571776735553e-23 -1.64059097676833e-07)
(2.87766895561146e-06 -5.93412922003213e-07 -1.2824235857152e-22 -2.61801861067659e-06 7.85464644527877e-23 -2.24363381627292e-07)
(3.85503870859977e-06 -7.0501069256425e-07 -1.10510599199232e-23 -3.47915796920344e-06 2.6474610235254e-23 -3.20872150900309e-07)
(5.74380095194319e-06 -9.5592230291747e-07 -8.85891669989153e-23 -5.11488033776142e-06 1.45082812029689e-22 -5.24310268588992e-07)
(9.32472933679643e-06 -1.64953328890412e-06 -1.220829168899e-22 -8.15759439100987e-06 1.0870221843392e-22 -9.66151040519866e-07)
(1.55046700003674e-05 -3.40893320356284e-06 1.11145664209515e-22 -1.32773032008204e-05 -1.12578314706899e-22 -1.86303632674077e-06)
(2.74140161790588e-05 -8.3155775520802e-06 1.64495504539857e-23 -2.27330788396098e-05 7.8324587967303e-25 -3.97391301279452e-06)
(4.77338609286367e-05 -2.14814228132159e-05 -2.14993542658142e-23 -3.7771729346898e-05 3.2092256690165e-23 -8.7381982106161e-06)
(7.26947207895425e-05 -5.24751081334569e-05 -2.05689854213684e-22 -5.26992879863023e-05 2.3058947743562e-22 -1.81445571358475e-05)
(4.7647898631445e-05 -6.24981356207336e-05 2.5703315411105e-22 -3.01929331944398e-05 -3.71713931290759e-24 -1.6773616021737e-05)
(1.03703317297997e-05 -2.76524434267307e-05 -9.51009756347308e-24 -5.01793928581775e-06 2.42813532763464e-24 -5.2003222556664e-06)
(7.55072127667954e-07 -5.68822347440513e-06 1.23723098009351e-24 -1.16841861130849e-07 -6.24005476103436e-24 -6.55116357658754e-07)
(1.02232662866256e-07 -2.20719282102451e-06 1.65742054206212e-25 6.61701710057101e-08 -2.09649985292497e-26 -1.79027886350735e-07)
(2.99073899146266e-05 -0.000115605094692297 -4.50424305418557e-26 3.2361538952766e-05 5.02584389214407e-26 -6.07498987003649e-05)
(2.11420984619549e-05 -9.53883578874944e-05 -1.22429850182369e-22 2.84921856133486e-05 1.44609897031522e-22 -4.8360320171435e-05)
(1.51327222424672e-06 -3.94669575764283e-05 6.22421327725781e-21 1.45040972134417e-05 -4.02710440403499e-21 -1.6056320161442e-05)
(-1.20294713971192e-06 -5.00722585074965e-06 1.24836606121289e-20 1.959232777837e-06 -3.7102655351093e-20 -8.40567619683438e-07)
(4.49560365478176e-07 2.61523242883869e-07 -5.46194862947687e-21 -4.29475116636983e-07 -1.77667551226601e-21 -4.71087508564975e-08)
(1.57062753992728e-07 7.76670960947475e-08 -6.01256233163819e-23 -1.41945235871486e-07 -4.15696347989109e-24 -1.87324320599365e-08)
(5.89903975616037e-08 2.09532633618163e-08 2.74333146402874e-25 -5.55608456621273e-08 2.62116790482837e-25 -4.68587563035155e-09)
(2.62217002396903e-08 6.55624181487621e-09 1.62454506342806e-24 -2.50081377066069e-08 -1.79392778702406e-25 -1.59502597079816e-09)
(1.76453331863715e-08 3.53300694021459e-09 -2.03255650118555e-23 -1.70063611983928e-08 3.1143809925647e-23 -8.75219778832871e-10)
(1.3094158121358e-08 2.44628201447506e-09 -2.05694107960423e-23 -1.26298389697323e-08 1.71859057686874e-23 -5.67920039611119e-10)
(1.10147206345992e-08 2.20507360834639e-09 -2.31574938378399e-25 -1.06258451817121e-08 4.51588558012269e-27 -4.34552089594047e-10)
(1.17034112471505e-08 2.48646909141734e-09 -4.03800402080524e-29 -1.12392031266855e-08 3.62347309445493e-29 -4.59565869557528e-10)
(1.48955578765131e-08 3.2853088561912e-09 9.37947899690556e-27 -1.42091943083968e-08 -3.70169173680366e-28 -6.22108775087541e-10)
(2.23259032307332e-08 4.94299068605477e-09 3.08150587360621e-26 -2.11112394282884e-08 -3.53687990122565e-25 -1.06986730257697e-09)
(3.85595071999726e-08 8.49488230584991e-09 -7.6397855648677e-25 -3.60324279667347e-08 2.47339609698254e-25 -2.25339924948172e-09)
(7.17744954288332e-08 1.58436250268717e-08 2.5846781602544e-26 -6.6156093613748e-08 -8.50526930805435e-28 -5.24285551688394e-09)
(1.34008097803487e-07 3.05074962066386e-08 -1.06734532991123e-24 -1.21473836385191e-07 -8.85657437506058e-27 -1.20903569215745e-08)
(2.39098474099722e-07 5.98045684237419e-08 3.05400448595515e-24 -2.12775654549888e-07 7.71797923355019e-25 -2.60116662281517e-08)
(4.03776679114847e-07 1.17361442831166e-07 -1.64904493371656e-24 -3.52063985085337e-07 -1.31979457581528e-24 -5.17925440942622e-08)
(6.38396336505625e-07 2.25383751163513e-07 -1.94565636160679e-24 -5.44451678266019e-07 -2.43082137180438e-24 -9.46480294392632e-08)
(9.39029518251326e-07 4.15546042329264e-07 9.94536599110332e-24 -7.80084004081775e-07 2.47609202399904e-24 -1.59078311821329e-07)
(1.2838813162662e-06 7.27657088996275e-07 -1.18976848242072e-23 -1.03202806984439e-06 2.47476425477493e-24 -2.49592769027134e-07)
(1.64368118963711e-06 1.20021055676754e-06 -1.29190685026714e-23 -1.26419837650566e-06 1.64259890610328e-23 -3.72403729627506e-07)
(1.95291368919503e-06 1.85035935504407e-06 1.61543750160576e-23 -1.4085928504559e-06 1.86124737226353e-23 -5.28033929844956e-07)
(2.10682587443003e-06 2.64478965153492e-06 -1.93228811744766e-23 -1.37109479359103e-06 -6.22664057121861e-25 -7.07237271209024e-07)
(2.03227665204319e-06 3.52255652819241e-06 -3.81104619230928e-22 -1.0920816096687e-06 -1.14471513698029e-22 -9.07991951673267e-07)
(1.85421314347609e-06 4.52024789344609e-06 -3.8100250321011e-21 -5.76734226396892e-07 -3.6153508389935e-21 -1.19671972739921e-06)
(1.63728087671477e-06 5.78327839739082e-06 -3.16917731630853e-21 9.81412058333746e-08 -3.54660490739793e-21 -1.67518323837109e-06)
(2.19138229895772e-06 9.00026098841592e-06 4.38530467519571e-22 9.0549517353443e-07 1.86387430372838e-22 -3.01613996638324e-06)
(3.49233890354833e-06 1.41783628076994e-05 -3.1269147749044e-30 2.03364984670342e-06 -1.56592569777979e-30 -5.38052886228937e-06)
(4.82685094538492e-06 1.9618000990806e-05 -7.61637834522736e-22 3.41274974178911e-06 -4.25486306825563e-22 -8.06645992520635e-06)
(6.24685227057435e-06 2.51514079768279e-05 -2.44789004270179e-20 4.89492621918379e-06 -2.09740797766662e-20 -1.092990460566e-05)
(7.67756133678272e-06 3.06729919231621e-05 -2.94821040953983e-20 6.4240924132129e-06 -2.68827403331178e-20 -1.38628246200142e-05)
(9.10050991606412e-06 3.61178019911415e-05 1.40941574911411e-21 7.95783525779148e-06 9.23734842940333e-22 -1.67937643557963e-05)
(1.04814105137952e-05 4.14287690374077e-05 1.20813500447304e-24 9.46282820067883e-06 8.56447064253133e-25 -1.96598413490686e-05)
(1.18006110486359e-05 4.65685616907824e-05 1.13724487321445e-24 1.09163806081589e-05 8.3330634323473e-25 -2.2416217082577e-05)
(1.30353907560915e-05 5.1495344030047e-05 -1.46402486337098e-24 1.22964794336754e-05 -1.0741738433288e-24 -2.50194177515291e-05)
(1.41687108593812e-05 5.6174615387417e-05 5.18623371968088e-21 1.35856499648264e-05 3.65417224780833e-21 -2.74341970972554e-05)
(1.51844562767375e-05 6.05720010939653e-05 1.02046043887328e-19 1.47677840535524e-05 1.04199567522734e-19 -2.96285680441618e-05)
(1.60703312157542e-05 6.46589304776016e-05 1.04220352028421e-19 1.58300145660688e-05 1.13225637594626e-19 -3.15769833606797e-05)
(1.68170873704021e-05 6.84127584753284e-05 -7.16994282145116e-21 1.67622775110086e-05 -5.06070567580297e-21 -3.32599509766292e-05)
(1.74200104453276e-05 7.18215129435294e-05 -1.64437848635986e-24 1.75587205920409e-05 -1.57880621705684e-24 -3.4666359484445e-05)
(1.78770119413575e-05 7.48798042832397e-05 1.32572893432467e-24 1.82162729163066e-05 1.66057819022195e-24 -3.57903902571997e-05)
(1.81806116748384e-05 7.75646399000552e-05 4.05050912893004e-26 1.87276893361925e-05 -8.93747245717181e-25 -3.66175498842794e-05)
(1.83158427669195e-05 7.97975945267773e-05 1.34763610784493e-24 1.9076041111192e-05 1.47017329797644e-24 -3.71163677987631e-05)
(1.82738072063349e-05 8.15133904028708e-05 -1.91433316373036e-20 1.92465064967804e-05 -1.28228330050223e-20 -3.72624794224956e-05)
(1.80791543862328e-05 8.27577149178613e-05 -2.58188975545271e-19 1.92609807333494e-05 -3.04748288254318e-19 -3.71015254775487e-05)
(1.77401296059423e-05 8.35300375023791e-05 -2.33281780714529e-19 1.91258638524666e-05 -3.06971563134162e-19 -3.66479880255507e-05)
(1.72685825628715e-05 8.38394375657614e-05 2.27285863252195e-20 1.88506550497571e-05 1.42855850597469e-20 -3.59227928311717e-05)
(1.66779099570605e-05 8.36998667270481e-05 1.55768480702831e-24 1.84467478323503e-05 2.05229031662989e-24 -3.49503631902761e-05)
(1.59827714331571e-05 8.31297772592627e-05 -7.36573691847942e-25 1.79269978372811e-05 -1.7104750699231e-24 -3.37578726722082e-05)
(1.51986716180311e-05 8.21515835602443e-05 -3.3092098596783e-20 1.73053522711164e-05 -1.92649925012161e-20 -3.23744627447911e-05)
(1.43415570473387e-05 8.07910673736154e-05 -3.42663659186669e-19 1.6596468722124e-05 -4.69634582680319e-19 -3.0830461418347e-05)
(1.34274319286125e-05 7.90767544375733e-05 -2.81116428301287e-19 1.58153513207526e-05 -4.60527067006857e-19 -2.91566360341402e-05)
(1.24720013035159e-05 7.7039252918965e-05 3.66930905772918e-20 1.49770052117894e-05 1.93233310042552e-20 -2.73834908241986e-05)
(1.14903585750758e-05 7.4710567347001e-05 -1.08756555408718e-25 1.40961136399557e-05 -3.08443525932339e-26 -2.55406299536264e-05)
(1.04967273206347e-05 7.21234284333304e-05 -1.37554619222823e-25 1.31867468785621e-05 -4.24026410519957e-26 -2.36562108912876e-05)
(9.50428154482544e-06 6.93107232767143e-05 -1.00610306524209e-24 1.22621329276877e-05 -1.71281589324845e-24 -2.17565212896033e-05)
(8.52502388981121e-06 6.63050254975317e-05 7.37938503306484e-25 1.13344493521243e-05 1.35408770465086e-24 -1.98656704450527e-05)
(7.56973991911255e-06 6.31384681920189e-05 -2.5590738079025e-25 1.04147738652322e-05 -4.77653468263503e-25 -1.80054485368974e-05)
(6.64793389897496e-06 5.98425396890664e-05 6.58684072003276e-26 9.5129631112483e-06 3.96974017123142e-26 -1.61952000500486e-05)
(5.767742590754e-06 5.64481633006797e-05 7.79273568144957e-26 8.63777768120093e-06 8.49664394178804e-25 -1.4451789132199e-05)
(4.93582354343369e-06 5.2985059887341e-05 -7.05733710512659e-25 7.79673749118281e-06 -1.96069599640516e-24 -1.2789411777162e-05)
(4.15736837484536e-06 4.94813850389135e-05 4.22345517676508e-25 6.99615429202908e-06 1.79784880371814e-25 -1.12195660576968e-05)
(3.43614145985954e-06 4.59631009324205e-05 1.1680375975242e-25 6.24099488000526e-06 8.89745837855405e-25 -9.75103860325098e-06)
(2.77461854210795e-06 4.24538986578907e-05 -6.44688034294417e-25 5.53502398190385e-06 -2.19862000443999e-24 -8.3900808525115e-06)
(2.17413794341416e-06 3.89748584174734e-05 1.15834735389242e-24 4.88070266059272e-06 4.26158610084447e-24 -7.14057612841899e-06)
(1.6350855463084e-06 3.5544839021807e-05 -5.1949852825728e-25 4.27945502344427e-06 -2.0730472866145e-24 -6.00436079090872e-06)
(1.15707469169103e-06 3.2180519582131e-05 5.00089728043024e-25 3.73161346722157e-06 2.17790444234124e-24 -4.98147028146683e-06)
(7.39044196303119e-07 2.88971675904446e-05 1.06422251997073e-26 3.2367506644276e-06 5.09390785238125e-26 -4.07046839057985e-06)
(3.79240775435105e-07 2.57087477577987e-05 -5.20032703499039e-25 2.79377675093318e-06 2.11229465229438e-24 -3.26860485697002e-06)
(7.52606160370876e-08 2.26279575474759e-05 8.02799145150155e-20 2.4011123069238e-06 1.61655992722599e-20 -2.57195986631159e-06)
(-1.75853221800766e-07 1.96659166442094e-05 3.1563305043287e-19 2.05665074031428e-06 8.72286087501595e-19 -1.97556485912047e-06)
(-3.77469443593422e-07 1.68321527607774e-05 2.73116809084861e-19 1.75784621495174e-06 1.69096232547735e-18 -1.47358370257978e-06)
(-5.33188599226014e-07 1.41346269273608e-05 -4.26447892301484e-20 1.5016943043747e-06 8.22223643851175e-19 -1.05949780253896e-06)
(-6.46742180730737e-07 1.15801553922126e-05 -8.05270184673255e-20 1.28482589420611e-06 -1.06745580511951e-20 -7.26309203346581e-07)
(-7.21958554723853e-07 9.17472537095446e-06 -1.9126611289741e-24 1.10365955159913e-06 1.42953870171006e-23 -4.66680464724906e-07)
(-7.62772914783225e-07 6.92372360127023e-06 -1.63079125582742e-24 9.54431418203082e-07 -5.37280867990481e-24 -2.73047425271964e-07)
(-7.73114830668196e-07 4.83195728306832e-06 8.74280597961642e-20 8.33327223629786e-07 7.92389784872024e-21 -1.37695764205772e-07)
(-7.56931338413015e-07 2.90401673236881e-06 1.21781158745276e-19 7.36316748244981e-07 8.53019650840016e-19 -5.28577041453343e-08)
(-7.17927396206441e-07 1.14417401912162e-06 -6.45555168905572e-20 6.59401384241863e-07 8.27014653056371e-19 -1.07549060080202e-08)
(-6.59749871031645e-07 -4.42376570016151e-07 -8.40661587441443e-20 5.98134227705398e-07 -4.2014757970575e-21 -3.66296120236126e-09)
(-5.85590241503706e-07 -1.8502734523334e-06 -1.12671654038785e-24 5.48374901381592e-07 -8.52172539820842e-25 -2.39011774332309e-08)
(-4.98708586696397e-07 -3.0711466758974e-06 2.55138980557644e-24 5.05025991599329e-07 -1.9395797445274e-23 -6.37916187905147e-08)
(-4.01669682495126e-07 -4.09646024880719e-06 3.40778660707712e-24 4.63511728307831e-07 1.99823056189068e-23 -1.15695074262075e-07)
(-2.97159501411623e-07 -4.91129340239431e-06 -3.04357543647908e-24 4.17456558910892e-07 -1.72312459214966e-23 -1.71765280088599e-07)
(-1.87212277212844e-07 -5.50084817413547e-06 -4.67446432725589e-24 3.62450170379012e-07 4.37771176537443e-23 -2.242675446427e-07)
(-7.33150785851551e-08 -5.83947415384525e-06 3.65213437525879e-24 2.90352730245142e-07 -2.61668420609347e-23 -2.65069615722223e-07)
(4.20498071734662e-08 -5.90175725532507e-06 -8.7595464596807e-26 1.97260709687424e-07 -2.54659473087846e-23 -2.86575572457063e-07)
(1.5865792865142e-07 -5.65566892982603e-06 7.75389040896428e-25 7.56355332910629e-08 3.8399289355245e-23 -2.82018441688359e-07)
(2.75935237406115e-07 -5.08447572624316e-06 9.31993913901416e-25 -8.04458707955904e-08 -1.26420205126531e-23 -2.4741960139548e-07)
(4.30109354537394e-07 -4.06187645920766e-06 -3.00481621828695e-24 -2.86135051731594e-07 -5.73572429582723e-25 -1.78574294359286e-07)
(5.29736766414749e-07 -2.87740227421992e-06 2.31538025454466e-23 -4.85042670519575e-07 -2.47796638742461e-22 -9.99935189254821e-08)
(7.46065457078632e-07 -2.88787433678929e-06 3.64409996138226e-22 -5.61050595923517e-07 -2.08371093345744e-21 -9.71945820776508e-08)
(1.35992474660902e-06 -3.52945097661874e-06 5.05082336116703e-22 -1.08033301776425e-06 -3.30285623948075e-21 -1.43195897041785e-07)
(2.52001525574273e-06 -4.51174500918024e-06 1.11932227792245e-22 -1.9950334780489e-06 2.01885599790426e-21 -2.38278714430692e-07)
(4.31709361552271e-06 -5.64646995339156e-06 3.55366078932313e-21 -3.5364853349423e-06 -6.37701678420071e-21 -4.09079865221102e-07)
(6.90114931792944e-06 -6.79961436554543e-06 3.04303597161761e-21 -5.7356205488111e-06 -6.50862476546287e-21 -6.90860615234001e-07)
(1.03563611007363e-05 -7.88354943082987e-06 -4.55192686079144e-21 -8.69938522593705e-06 6.148277564896e-21 -1.13970702077089e-06)
(1.50160222120546e-05 -8.97254510769417e-06 5.8848748246011e-21 -1.26163491634878e-05 -5.76156126533818e-21 -1.86867051929422e-06)
(2.07674431228992e-05 -9.96974759090606e-06 -5.74867304404854e-21 -1.73612728145587e-05 5.46020933817813e-21 -2.97042919894258e-06)
(2.7548486269353e-05 -1.09087400681685e-05 -5.51506363636641e-21 -2.27299426711588e-05 4.88191517859735e-21 -4.53544352632477e-06)
(3.4959226431148e-05 -1.17858662332683e-05 2.74154324948903e-21 -2.83294916040251e-05 -2.65333180249678e-21 -6.57833799508455e-06)
(4.26213051821548e-05 -1.26864371758306e-05 -4.31123705706046e-21 -3.37400633716282e-05 2.42962624709973e-21 -9.06747411192488e-06)