/*--------------------------------*- C++ -*----------------------------------*\
| =========                 |                                                 |
| \\      /  F ield         | OpenFOAM: The Open Source CFD Toolbox           |
|  \\    /   O peration     | Version:  2.4.0                                 |
|   \\  /    A nd           | Web:      www.OpenFOAM.org                      |
|    \\/     M anipulation  |                                                 |
\*---------------------------------------------------------------------------*/
FoamFile
{
    version     2.0;
    format      ascii;
    class       volSymmTensorField;
    location    "18000";
    object      bDelta;
}
// * * * * * * * * * * * * * * * * * * * * * * * * * * * * * * * * * * * * * //

dimensions      [0 0 0 0 0 0 0];

internalField   nonuniform List<symmTensor> 
15600
(
(0.000373009631967142 3.89526094179311e-06 6.85746150678903e-25 0.000372984435276505 3.93473840371363e-23 -0.000745994067243647)
(0.000454563281254494 1.62959727520591e-06 9.18533370753138e-22 0.000454428145160805 5.61571359984281e-22 -0.000908991426415299)
(0.000206534298165929 2.35563589432915e-06 2.3956404676884e-23 0.000205561985097634 1.03628749942506e-22 -0.000412096283263563)
(2.28608123529582e-07 -3.90339421650793e-08 -2.47585483866957e-20 1.15400190896366e-07 -7.33593880200066e-20 -3.44008314425949e-07)
(4.99657556095543e-05 7.24995577397792e-07 5.24601435901099e-19 4.81917645181503e-05 -2.51115180499743e-19 -9.81575201277046e-05)
(3.15075381074904e-05 2.4348029391313e-07 -9.29492834660523e-22 3.05482625231351e-05 -1.99297591448742e-22 -6.20558006306255e-05)
(1.29380090399973e-05 5.5199545519656e-08 -1.50978408533186e-22 1.26081470784053e-05 1.11779849549204e-22 -2.55461561184026e-05)
(7.63864461483228e-06 2.5775613111237e-08 -7.73499831972956e-22 7.41969859400852e-06 -2.61037774800422e-22 -1.50583432088408e-05)
(4.75124895547847e-06 8.77496262251338e-09 2.06103708609267e-20 4.65640790585095e-06 1.79397346211042e-20 -9.40765686132943e-06)
(3.42330225667911e-06 5.19632792155327e-09 1.360324280697e-20 3.36298327495376e-06 1.44708854396497e-20 -6.78628553163286e-06)
(2.54395399989928e-06 1.55101491961753e-09 9.49140372132202e-23 2.52736254925172e-06 2.11803584820051e-23 -5.071316549151e-06)
(2.32280384911339e-06 -1.81422867427328e-10 -1.35474539646198e-27 2.32456544200352e-06 1.61732897264702e-26 -4.6473692911169e-06)
(2.42549569172626e-06 -2.31514561925513e-09 2.82117295168164e-24 2.44645446177153e-06 7.86262683582894e-25 -4.87195015349779e-06)
(3.05809332419289e-06 -5.16005083688894e-09 9.96836965921172e-23 3.10283303781148e-06 -7.54885531164121e-23 -6.16092636200437e-06)
(4.58764336746241e-06 -8.71611671520024e-09 -5.66640311806276e-23 4.66087149545706e-06 1.6088499383903e-22 -9.24851486291946e-06)
(7.5683397730166e-06 -1.32925388426091e-08 2.71989795257662e-24 7.67707209051804e-06 7.36100115774038e-25 -1.52454118635346e-05)
(1.23729247385687e-05 -1.62344465678867e-08 6.6773287250004e-23 1.25004594915605e-05 2.32984917187646e-22 -2.48733842301292e-05)
(1.90415858042574e-05 -2.00343592707486e-08 -3.54629319468613e-22 1.91849191460666e-05 -2.08014197637766e-22 -3.8226504950324e-05)
(2.75841297130591e-05 -2.40425907174579e-08 4.19368207601443e-22 2.77328459373149e-05 -2.03068504521953e-22 -5.5316975650374e-05)
(3.717943662023e-05 -3.49528905746265e-08 4.1533767194573e-22 3.73585842410596e-05 -3.95882715535472e-22 -7.45380208612896e-05)
(4.63014696485443e-05 -6.62767972771859e-08 -2.34226314546812e-22 4.65734471518268e-05 -9.39787482630493e-22 -9.2874916800371e-05)
(5.42864310122375e-05 -1.56349199248451e-07 2.89715282474731e-22 5.4785377663727e-05 1.20768967704659e-21 -0.000109071808675964)
(6.13685827785244e-05 -3.09665322565793e-07 -2.01871871988884e-21 6.21266925812041e-05 6.6354336548463e-22 -0.000123495275359728)
(6.61427349234735e-05 -5.09949244130091e-07 -1.77913965852799e-21 6.70865346484422e-05 6.88259974507042e-22 -0.000133229269571916)
(6.75912136435452e-05 -7.38174559987295e-07 -1.21046410520061e-21 6.85887132712601e-05 5.62913572647282e-22 -0.000136179926914805)
(6.6150721605009e-05 -1.07928644994095e-06 6.88878365391466e-21 6.71351924674903e-05 1.49892121449575e-20 -0.000133285914072499)
(6.14982028075167e-05 -8.33042997397133e-07 -2.39627859661046e-20 6.19391345731272e-05 1.08850194547306e-19 -0.000123437337380644)
(8.28858806539603e-05 -1.2239945113613e-06 -1.55513093997753e-20 8.31532002603899e-05 1.0700605004342e-19 -0.00016603908091435)
(0.000167818135980931 -1.41744479249542e-06 9.46340134202374e-22 0.000167926404545344 -2.28073707376558e-20 -0.000335744540526275)
(0.000278072601316077 -1.16662700767917e-06 -4.17631269707468e-30 0.00027813148677622 7.93362203531943e-29 -0.000556204088092297)
(0.000378128063802286 -1.30066111011134e-06 -2.1233060575e-21 0.000378173443022315 3.82465709765911e-20 -0.000756301506824601)
(0.000472319207362522 -1.13500028805451e-06 2.34606024740463e-21 0.000472348655362369 8.59656785174627e-19 -0.000944667862724891)
(0.000556160677389688 -1.06322020481801e-06 3.56396476295782e-20 0.000556181917724442 9.11993264748668e-19 -0.00111234259511413)
(0.000630950525099585 -9.40334575501319e-07 3.54746034783167e-21 0.000630965411907236 -5.93389967257528e-20 -0.00126191593700682)
(0.000696527052668587 -8.37191969567408e-07 1.83168841616351e-23 0.00069653775121639 -1.1336705827713e-25 -0.00139306480388498)
(0.000753601440529894 -7.23376225297982e-07 2.68034561767428e-23 0.000753608983178537 -1.35451739971862e-25 -0.00150721042370843)
(0.000802442221246548 -6.16714243336911e-07 -2.72947228103734e-23 0.00080244748792323 2.07196919641946e-24 -0.00160488970916978)
(0.000843449383058485 -5.10934577755499e-07 9.30731793645568e-21 0.000843452945667848 -1.77755800134925e-19 -0.00168690232872633)
(0.000876886228343628 -4.11508682366297e-07 -1.7530344884891e-19 0.000876888546315962 -1.65315108114022e-18 -0.00175377477465959)
(0.00090303853563939 -3.17510803276999e-07 -2.83540614384151e-19 0.00090303995127521 -1.31179092989454e-18 -0.0018060784869146)
(0.000922166964790088 -2.31220066648192e-07 -1.04812313364136e-20 0.000922167752975514 2.14446164451293e-19 -0.0018443347177656)
(0.000934560119989011 -1.53406695307552e-07 4.79532836435666e-24 0.000934560496602619 4.36169909532508e-24 -0.00186912061659163)
(0.000940528044544965 -8.56104312980644e-08 -3.96052813401082e-23 0.000940528179354817 -9.8014765859216e-24 -0.00188105622389978)
(0.000940399707710776 -2.18452887253038e-08 7.88973893360854e-23 0.000940399723870044 9.90446437276289e-24 -0.00188079943158082)
(0.000934430524823765 3.70239715995323e-08 -2.27666799192958e-24 0.000934430526919515 -1.4904200696487e-23 -0.00186886105174328)
(0.000923010900598533 8.74807722918659e-08 -1.62902783848553e-20 0.000923010971669578 4.50682053539962e-19 -0.00184602187226811)
(0.000906619115870053 1.29103425605194e-07 6.31496586472862e-19 0.00090661931394622 2.040558255363e-18 -0.00181323842981627)
(0.000885727196554911 1.63078662900699e-07 7.78540022915269e-19 0.000885727559633666 1.08308061178109e-18 -0.00177145475618858)
(0.000860832951394187 1.89955281453174e-07 1.51444931080918e-20 0.000860833500855756 -4.73787911923985e-19 -0.00172166645224994)
(0.000832441004045846 2.10326152076604e-07 -3.11276726746159e-23 0.000832441747882596 -7.30461949036561e-24 -0.00166488275192844)
(0.000801057019012832 2.24833247678304e-07 6.47164612570641e-23 0.000801057954675493 7.94647494904078e-25 -0.00160211497368832)
(0.000767181099164439 2.34145991231397e-07 -1.37036418519878e-20 0.000767182216123698 5.98189829586184e-19 -0.00153436331528814)
(0.000731301597371016 2.38936340030245e-07 8.69911002632791e-19 0.000731302879356654 1.82974904884534e-18 -0.00146260447672767)
(0.000693889452177592 2.39863387900598e-07 9.54063422189097e-19 0.000693890879128424 5.81345550462511e-19 -0.00138778033130602)
(0.000655392954314747 2.37560717117251e-07 1.09338367202468e-20 0.00065539450405551 -5.87447344262389e-19 -0.00131078745837026)
(0.000616233218683771 2.32632115006539e-07 8.31318535738883e-25 0.000616234868371933 -1.75451614952283e-24 -0.0012324680870557)
(0.000576800743408532 2.25616340599336e-07 7.62922767021056e-25 0.000576802470514524 1.03579317953442e-24 -0.00115360321392306)
(0.000537452901299913 2.17051850529322e-07 -6.80125338482328e-24 0.000537454684853192 -7.5739677276545e-25 -0.0010749075861531)
(0.000498513369588672 2.07335407642144e-07 -1.07263998880739e-23 0.000498515190038762 -1.63375442594755e-24 -0.000997028559627433)
(0.000460272059030107 1.96939611402891e-07 6.3445731713964e-25 0.000460273899755625 1.76504090660237e-24 -0.000920545958785732)
(0.000422986522964998 1.86103847597704e-07 4.58910035964914e-24 0.00042298836877037 -1.4847901189826e-24 -0.000845974891735368)
(0.000386882306343187 1.75168323074065e-07 -1.4822506526394e-23 0.000386884145065724 3.49583438448878e-25 -0.000773766451408911)
(0.000352151077986528 1.642698338969e-07 -8.30632987808773e-24 0.000352152898994111 1.45580186268289e-24 -0.000704303976980638)
(0.000318950117937985 1.53661707659146e-07 1.75764918258737e-23 0.000318951913908019 -8.08544656862818e-25 -0.000637902031846004)
(0.00028740282563194 1.43367940304762e-07 1.2751263115029e-26 0.000287404590261269 1.97620943881602e-24 -0.00057480741589321)
(0.000257600449652843 1.33584382236485e-07 1.94749020087634e-23 0.000257602180011092 -9.78100149143248e-25 -0.000515202629663936)
(0.000229605186076995 1.24251001869249e-07 -1.85007601949864e-23 0.000229606879431446 -2.62425798829035e-24 -0.000459212065508441)
(0.000203454084887902 1.15499773903619e-07 1.75396466449288e-26 0.000203455741313234 1.67049273694227e-24 -0.000406909826201136)
(0.000179162647671796 1.07258684413298e-07 0 0.000179164267090696 0 -0.000358326914762492)
(0.000156729738455053 9.95658834617922e-08 0 0.000156731322129666 0 -0.000313461060584719)
(0.000136138520566212 9.23432374636336e-08 0 0.000136140069279804 0 -0.000272278589846016)
(0.000117357168906406 8.55943116973739e-08 -1.09675063217311e-20 0.00011735868434345 -5.07894367972356e-19 -0.000234715853249856)
(0.000100339186252965 7.9248518457636e-08 -2.29649860404982e-19 0.000100340669739877 -1.12732726678505e-18 -0.000200679855992842)
(8.50252679024093e-05 7.32805137997604e-08 -2.47715611559793e-19 8.5026721172329e-05 -3.01352831830444e-19 -0.000170051989074738)
(7.13451931604041e-05 6.76509529780302e-08 -2.18359328348975e-20 7.13466179446108e-05 6.90933364330023e-19 -0.000142691811105015)
(5.92214133942648e-05 6.22988557754097e-08 1.02156924058461e-20 5.92228106839131e-05 3.75840400548876e-19 -0.000118444224078178)
(4.85702488433562e-05 5.72242441733373e-08 -4.35819023681018e-23 4.85716200416583e-05 -5.18742936338055e-24 -9.71418688850144e-05)
(3.93037954864702e-05 5.23348462282621e-08 6.83997188239606e-26 3.93051400082666e-05 3.68819974022009e-25 -7.86089354947367e-05)
(3.13292265560698e-05 4.77032082024538e-08 -1.05123208277642e-20 3.13305458424524e-05 -3.05896573254171e-19 -6.26597723985222e-05)
(2.45518998371711e-05 4.31695540653736e-08 6.45854611344998e-20 2.45531906965929e-05 -3.12783764702454e-19 -4.91050905337641e-05)
(1.8872946803071e-05 3.8928658887652e-08 1.55006137704333e-19 1.8874211490401e-05 2.08721567156722e-19 -3.7747158293472e-05)
(1.41954729715465e-05 3.4700848424204e-08 7.29655872151022e-21 1.41967032387073e-05 2.0773401816149e-19 -2.83921762102538e-05)
(1.04181226276644e-05 3.08615448647579e-08 -2.32097465844438e-23 1.04193217426661e-05 1.74556442759717e-24 -2.08374443703306e-05)
(7.44491501693954e-06 2.69816060713002e-08 -3.65528008580498e-24 7.44606538856637e-06 1.51090370052215e-25 -1.48909804055059e-05)
(5.17287929164855e-06 2.37476697590404e-08 2.00162605607e-23 5.17398830633009e-06 4.69353474424454e-25 -1.03468675979786e-05)
(3.50749451633473e-06 2.05913598202271e-08 5.9663011100439e-23 3.50853259529832e-06 -2.58498100264282e-24 -7.01602711163305e-06)
(2.34663591499128e-06 1.8158433337435e-08 -7.2902343556376e-23 2.34759103101884e-06 -1.99878460936959e-24 -4.69422694601012e-06)
(1.60082530698664e-06 1.59729972707845e-08 1.97165306139854e-23 1.60162393579867e-06 6.17094183759506e-24 -3.20244924278531e-06)
(1.18881679160273e-06 1.49915974824373e-08 1.69549928051152e-23 1.18939252794345e-06 -4.58559870066603e-24 -2.37820931954618e-06)
(1.06296412694518e-06 1.57025787215561e-08 -5.20507232001662e-23 1.06317739912371e-06 -3.25623488685967e-25 -2.12614152606888e-06)
(1.26590960928413e-06 1.73714680129086e-08 6.09520149092078e-23 1.26556814279714e-06 2.75966340784635e-24 -2.53147775208127e-06)
(2.0125628308711e-06 3.46357984492816e-08 -2.74936331351723e-23 2.01042278828257e-06 -1.24795948852896e-24 -4.02298561915367e-06)
(4.62205620860917e-06 -9.95100361147418e-09 -1.29927832700029e-25 4.62113418987629e-06 -3.44438750171853e-24 -9.24319039848545e-06)
(5.46675613386976e-06 -4.47086037686577e-08 -1.96719098280531e-22 5.44389999273324e-06 9.64640405276012e-22 -1.0910656126603e-05)
(4.13355847255144e-06 -1.45413905857682e-07 8.25623869826975e-21 4.00106830728217e-06 1.83146716683409e-21 -8.13462677983361e-06)
(2.366482769289e-06 -1.29456365562006e-07 -7.09697171655345e-21 2.18901703688299e-06 -1.75893433768807e-21 -4.555499806172e-06)
(5.35099175107072e-07 -6.79185599308933e-08 1.00789906870044e-20 4.00997909198538e-07 5.25120796085805e-21 -9.36097084305608e-07)
(7.9361518855908e-08 3.81536057991622e-08 -2.75934837275799e-21 1.5231870999894e-07 -2.61776716096574e-22 -2.31680228854848e-07)
(2.35097546372109e-06 1.47885618407091e-07 9.69195501736445e-21 2.77830577206896e-06 4.64379101300457e-21 -5.12928123579006e-06)
(9.61229916404142e-06 2.13401733438476e-07 -1.67720023167387e-20 1.04092527912165e-05 -9.56940653773749e-21 -2.00215519552579e-05)
(2.42633091546485e-05 2.20023785847627e-07 -6.48507731634949e-21 2.52814906433766e-05 8.89097871464947e-23 -4.95447997980251e-05)
(4.81689946956871e-05 1.44877066127578e-07 3.2832251789448e-20 4.89663019135104e-05 1.77727967158416e-20 -9.71352966091974e-05)
(8.18757025633395e-05 1.73895425567299e-08 -3.42403949059959e-20 8.19848519350238e-05 -2.82619799162354e-20 -0.000163860554498363)
(0.000125334722740946 -1.78068659638152e-07 3.33119038459348e-21 0.000124118623338941 -1.25285755479756e-21 -0.000249453346079888)
(0.000172436845022471 -3.44888368888592e-07 -3.78492112101649e-20 0.000169979507956321 -3.19952977433335e-20 -0.000342416352978791)
(0.000216518535290779 -4.94878781231101e-07 1.14938635151815e-21 0.000212851173114946 7.1249356380092e-21 -0.000429369708405725)
(0.000258422906402831 -6.31674784717344e-07 8.99567855225146e-22 0.000253478613903861 8.0791167867528e-21 -0.000511901520306692)
(0.000299970321431461 -7.56325060537285e-07 5.09994909665132e-22 0.0002935973236049 8.9240793453787e-21 -0.000593567645036361)
(0.000345057550634002 -9.03664563376138e-07 -4.66617779766176e-20 0.000336688575303508 -2.18998252055407e-20 -0.000681746125937509)
(0.000400944041298863 -1.09987628842687e-06 -4.6549488072704e-21 0.000389502074381688 -8.85576421991514e-21 -0.000790446115680551)
(0.000493513016463646 -1.59551193486349e-06 -2.68199599414237e-20 0.000475388995775221 -4.00920463603648e-20 -0.000968902012238867)
(0.000646275825435141 -2.65221608900602e-06 -2.62969687694314e-20 0.000618166722953854 -2.24697409487544e-20 -0.001264442548389)
(0.000871478083927693 -4.84030413227015e-06 2.02276272558679e-20 0.000830610898945895 1.89859265934685e-20 -0.00170208898287359)
(0.00124569342081831 -1.02558815106594e-05 1.6897986778339e-21 0.00118384532170623 -8.90930633422148e-22 -0.00242953874252454)
(0.00183263578134537 -2.06256024428937e-05 -3.37276396354764e-21 0.00175053673571869 -3.4154452095155e-21 -0.00358317251706406)
(0.00269246986106998 -3.85504301415734e-05 -2.59629216381458e-20 0.00260035012759195 -1.34744005492617e-20 -0.00529281998866193)
(0.00279420517141374 -2.18660644503456e-05 6.52059412568903e-21 0.00276697119669325 -2.76428213887932e-20 -0.00556117636810699)
(0.0017590212013381 -8.96994143649566e-06 -4.55309383107407e-22 0.00175402953070383 1.55755616798207e-21 -0.00351305073204193)
(0.000704566923635568 2.0794855266052e-06 2.33037852971111e-21 0.000704885675619963 1.20198974151613e-22 -0.00140945259925553)
(0.000351539252709129 1.69187708512284e-06 1.11042791772359e-24 0.000351566895651345 -7.90376372213959e-23 -0.000703106148360474)
(0.0148619435453363 -0.000195970290032219 -1.46633902292339e-23 0.0148661037451966 5.95949103875108e-24 -0.0297280472905329)
(0.0138071807953908 -0.000184853935688098 -4.84362195604899e-20 0.0138214245937711 1.81707121586215e-20 -0.0276286053891619)
(0.0086128048347305 8.27305965668557e-06 -7.93087567980471e-19 0.00861008169930976 -4.42668431502251e-18 -0.0172228865340403)
(0.00137305877308743 2.0888702105719e-05 2.3679221654674e-17 0.00135986707048179 -1.17956646766851e-17 -0.00273292584356923)
(0.00043102237958736 -1.21715959686815e-05 -1.31594744840388e-17 0.000471933713556984 -2.78595639506171e-18 -0.000902956093144343)
(0.000646831653521741 -6.51474237777271e-06 -5.47818747541302e-19 0.000671912545183825 -2.81335265462139e-19 -0.00131874419870557)
(0.00030900938963186 -2.22836198463419e-06 4.97231292700034e-21 0.000321191818272428 -2.84184129420659e-21 -0.000630201207904288)
(0.000191663023125124 -6.9507324828107e-07 3.07998801335251e-20 0.000197094258103287 1.3161777847551e-20 -0.000388757281228411)
(0.000129174859387852 -3.49294803477115e-07 -2.72906515651952e-19 0.000132600739094599 -8.21619597771678e-19 -0.000261775598482451)
(9.97739378472116e-05 -1.48646241149094e-07 -3.62813072613212e-19 0.000101337034600691 -5.04765754444588e-19 -0.000201110972447902)
(8.24381816612957e-05 -6.83636518560524e-08 -4.79450904227167e-21 8.31091017166782e-05 -1.14911624467644e-21 -0.000165547283377974)
(8.19846236776694e-05 6.86616422206778e-09 -6.18242373586824e-25 8.19212696796172e-05 -9.68904997386488e-25 -0.000163905893357287)
(9.33691347367589e-05 8.81956410114315e-08 1.59095287071093e-22 9.2587804156351e-05 4.5996516491044e-23 -0.00018595693889311)
(0.000124157871819037 1.78013050218138e-07 -8.4709745855046e-22 0.000122593560099959 6.3089596243968e-21 -0.000246751431918996)
(0.000186904307477304 2.94987613722689e-07 -9.1229171044897e-21 0.00018431407771713 -6.35536110956794e-21 -0.000371218385194434)
(0.00029510640901918 3.48934853728486e-07 2.78680675773204e-22 0.000292068670507278 8.46140171727205e-23 -0.000587175079526458)
(0.000454691483704322 3.55881091788717e-07 -9.41885031511058e-21 0.000451711193579707 -2.51351901657282e-21 -0.000906402677284029)
(0.00066313581019299 2.25631779321459e-07 2.30832996699084e-20 0.000661430971141998 -8.19168879588088e-22 -0.00132456678133499)
(0.000915550442512698 -5.47994461212315e-08 -1.18599044792137e-20 0.000915903366341469 7.43980587034077e-21 -0.00183145380885416)
(0.00119409285477286 -4.73010709747603e-07 -1.34074674647643e-20 0.00119657528651917 1.26659763164232e-20 -0.00239066814129204)
(0.00148395514580891 -8.984940780344e-08 3.75358527775549e-20 0.00148432685271066 7.36498786870164e-21 -0.00296828199851957)
(0.00178364680459824 1.56665180089765e-06 -2.32223073773328e-20 0.00177866063231278 -3.84656391254118e-20 -0.00356230743691102)
(0.00209345127447604 4.99149689909289e-06 1.57842180341477e-20 0.00208135783657425 -9.39172033983333e-20 -0.00417480911105029)
(0.00239914791783992 1.15281295283677e-05 6.22371782618454e-20 0.00237820502223755 -2.06774570303974e-20 -0.00477735294007748)
(0.00268757569753762 2.01362299434027e-05 -1.32363123574965e-20 0.00266109638556075 -4.46342415936952e-20 -0.00534867208309837)
(0.00298421073482191 2.27433196860661e-05 -3.28302578700737e-19 0.00296403837472174 -6.93106664378612e-19 -0.00594824910954365)
(0.00352572599459922 5.86119553622636e-05 -7.9710720041973e-18 0.00349420502891554 -3.55553827712506e-18 -0.00701993102351476)
(0.00442657260491429 4.5311080866874e-05 -7.17631996941635e-18 0.00441451368654643 -3.18797755749145e-18 -0.00884108629146072)
(0.00599503741793701 5.35523000451274e-05 -9.89787077534911e-21 0.00598738628279177 8.82773210404409e-19 -0.0119824237007288)
(0.00771261974681777 7.90299831709384e-05 1.50029805420844e-28 0.00770448903573514 -5.20367835022021e-27 -0.0154171087825529)
(0.00906232675957103 7.99971096406105e-05 4.22279077216899e-20 0.00905656042236471 -1.08475558506138e-18 -0.0181188871819357)
(0.0101278293298023 8.53922805710909e-05 -1.18620209826698e-17 0.0101232393661391 -2.15368457455209e-17 -0.0202510686959414)
(0.010955715444453 8.54062201501462e-05 -1.48270193761495e-17 0.0109522252716291 -2.12501593193468e-17 -0.0219079407160821)
(0.0115959839823022 8.50606877739675e-05 -7.63272275758332e-20 0.0115932928802147 1.41431381041902e-18 -0.023189276862517)
(0.0120774295676808 8.30245345174063e-05 1.52504848044706e-23 0.0120753882972212 1.04715801524726e-21 -0.0241528178649019)
(0.0124253614335453 8.03655010482336e-05 3.44888358067188e-23 0.0124238354765518 8.86374184504119e-22 -0.0248491969100971)
(0.012656895447604 7.69032567307719e-05 -2.32262652893289e-23 0.0126557919558574 -1.0639243365911e-21 -0.0253126874034614)
(0.0127863243720697 7.29726346160834e-05 -1.90641075580069e-19 0.0127855669571889 3.68729804316193e-18 -0.0255718913292586)
(0.0128246786026732 6.86177826584729e-05 4.08644894036438e-17 0.0128242065838603 3.47019006594366e-17 -0.0256488851865335)
(0.0127813893259302 6.39979081363247e-05 4.75322246495108e-17 0.01278115146609 2.68900401810502e-17 -0.0255625407920201)
(0.0126644330977706 5.91965117910387e-05 2.10812554858075e-19 0.0126643856716389 -4.14054182755545e-18 -0.0253288187694095)
(0.0124809232377031 5.43403359609558e-05 -4.23347264839694e-22 0.0124810281861463 -5.51442409840631e-22 -0.0249619514238493)
(0.0122367610813931 4.95468566614903e-05 7.15066273546548e-22 0.0122369855653518 1.38551502862089e-22 -0.0244737466467449)
(0.0119354186586306 4.47796727187176e-05 -8.58119448572728e-22 0.0119357344978926 6.24430088159903e-22 -0.0238711531565232)
(0.0115840597938005 4.00280845566558e-05 4.44658639130019e-22 0.0115844411246386 2.78758309630523e-22 -0.0231685009184391)
(0.0111871291594208 3.54109659173833e-05 3.41182342062511e-19 0.0111875517184783 -8.1199779062714e-18 -0.0223746808778991)
(0.0107578475938544 3.10365138939994e-05 -9.21286845127745e-17 0.0107582908125909 -3.93742415861264e-17 -0.0215161384064453)
(0.0103015199929441 2.69001417794591e-05 -9.89938796302554e-17 0.0103019662569327 -2.19530812219386e-17 -0.0206034862498768)
(0.00982334615853132 2.30271867614963e-05 -3.31773349008885e-19 0.0098237806876704 8.203760035743e-18 -0.0196471268462017)
(0.00932827927011279 1.94317024167111e-05 5.83681046497013e-22 0.00932868992227462 1.61262280024893e-22 -0.0186569691923874)
(0.00882101348707166 1.61220821006642e-05 -6.34840658445399e-22 0.00882139054784029 1.45044893542228e-22 -0.017642404034912)
(0.00830598057662454 1.3101536375839e-05 3.43263568111601e-19 0.00830631655010202 -1.02393720365977e-17 -0.0166122971267266)
(0.00778734135432079 1.03687914221527e-05 -1.15583642588847e-16 0.00778763075152263 -3.45228626588802e-17 -0.0155749721058434)
(0.0072689764308952 7.91883125592929e-06 -1.19518851478946e-16 0.00726921555971193 -1.32074368424502e-17 -0.0145381919906071)
(0.00675447738408126 5.74356981830612e-06 -3.10626670440513e-19 0.00675466414166648 9.81351634596537e-18 -0.0135091415257477)
(0.00624714052773487 3.83251109187016e-06 9.13382765818186e-24 0.00624727419805145 -3.18110269447344e-23 -0.0124944147257863)
(0.00574996425254397 2.17293283121516e-06 8.7863152388989e-24 0.00575004529738531 -3.70612470263972e-23 -0.0115000095499293)
(0.00526565190162689 7.51323288832841e-07 -3.56822338866008e-22 0.00526568179653886 -6.83895580034886e-23 -0.0105313336981658)
(0.00479661787257424 -4.48107886762131e-07 2.73644682780075e-22 0.00479659888569206 4.29717609846424e-23 -0.0095932167582663)
(0.00434499574496923 -1.43985577504245e-06 -9.15149147877534e-23 0.00434493086473575 -1.57516316554767e-23 -0.00868992660970498)
(0.00391264266957473 -2.24132264172641e-06 2.67251684128575e-24 0.00391253536372046 1.18981233505264e-23 -0.00782517803329519)
(0.00350113422337896 -2.86756066836381e-06 1.78300779496137e-22 0.00350098842590282 -4.94099988791616e-23 -0.00700212264928177)
(0.00311175813389809 -3.33582613968768e-06 -3.41519212217641e-22 0.00311157801686981 -9.96586178456045e-24 -0.0062233361507679)
(0.00274551821542781 -3.66076994385748e-06 4.53777348883911e-24 0.00274530819418135 6.88773775279143e-23 -0.00549082640960916)
(0.00240314582563922 -3.85948395571699e-06 1.47962113428465e-22 0.00240291030439384 -2.42058319886689e-23 -0.00480605613003306)
(0.00208511750399324 -3.94556698763256e-06 -3.20418273097511e-22 0.00208486095830674 -1.05181628723009e-23 -0.00416997846229998)
(0.00179167985365027 -3.93543791918531e-06 5.81249831004602e-22 0.00179140656163969 2.03951760197916e-23 -0.00358308641528996)
(0.00152287272753686 -3.8417368684839e-06 -2.63493793930763e-22 0.00152258692031439 -9.9123010311888e-24 -0.00304545964785125)
(0.00127855434303033 -3.67916829368788e-06 2.56678554009639e-22 0.00127825999845303 1.03908439739617e-23 -0.00255681434148336)
(0.00105841829567352 -3.45986605599406e-06 5.53367990746352e-24 0.00105811924457103 2.42170774267987e-25 -0.00211653754024455)
(0.000861996394520014 -3.19661761885533e-06 2.32667014081988e-22 0.000861696171875435 -8.55789784436523e-23 -0.00172369256639545)
(0.000688662716845798 -2.90012623049417e-06 -1.48794755957647e-19 0.000688364622619537 7.34403142809806e-18 -0.00137702733946534)
(0.000537643868522692 -2.58119000988131e-06 6.74569056949069e-17 0.000537350848012727 1.9594689049472e-17 -0.00107499471653542)
(0.000408035154390613 -2.24908958836077e-06 1.20619203519943e-16 0.0004077498363874 1.17768832729357e-17 -0.000815784990778013)
(0.000298818784736263 -1.91240526909495e-06 5.29890000173411e-17 0.00029854346648366 -4.78813306856742e-18 -0.000597362251219923)
(0.000208882337334469 -1.57905149564504e-06 1.9027357623523e-19 0.000208618951796506 -4.35564877782381e-18 -0.000417501289130974)
(0.000137024940229998 -1.25530300623887e-06 6.51879301311441e-22 0.000136775155761858 -6.94629638678656e-23 -0.000273800095991856)
(8.19645893259919e-05 -9.47342281763884e-07 -1.77867607654025e-22 8.17296319006597e-05 -6.97073829564679e-23 -0.000163694221226652)
(4.23375412927244e-05 -6.58810931307309e-07 -2.58339725860055e-19 4.21185117103248e-05 2.25911426083062e-18 -8.44560530030493e-05)
(1.67079584104727e-05 -3.94036362190835e-07 1.31817784453309e-17 1.65053445490039e-05 5.17362409941216e-18 -3.32133029594766e-05)
(3.55939430824017e-06 -1.5409028561641e-07 5.77880374940908e-18 3.37390418032247e-06 2.86828301623838e-18 -6.93329848856264e-06)
(1.29766384176978e-06 5.92855566976309e-08 3.34251073494618e-19 1.1290871943854e-06 2.12598477511216e-19 -2.42675103615518e-06)
(8.2277860331408e-06 2.46138592402838e-07 1.46584997416794e-23 8.07693666341565e-06 1.06024419726036e-23 -1.63047226965564e-05)
(2.25241301635842e-05 4.09273782664245e-07 4.04223028321597e-22 2.23903683179277e-05 -1.10684225778624e-22 -4.49144984815119e-05)
(4.22149448105268e-05 5.48001892906109e-07 -6.26173064209416e-22 4.20992056059378e-05 -6.42176134327529e-23 -8.43141504164646e-05)
(6.50712234853821e-05 6.77696537750877e-07 6.97289983762659e-22 6.497261548333e-05 1.05489285627216e-22 -0.000130043838968712)
(8.86455387187828e-05 7.87652489592081e-07 -2.09254338477421e-21 8.85668339478864e-05 2.05554193945598e-22 -0.000177212372666669)
(0.000110034998633867 9.03809550687323e-07 1.46346222774089e-21 0.000109978711641196 -1.54313016499726e-22 -0.000220013710275063)
(0.000125993322117464 1.00856401286834e-06 1.63905986962017e-21 0.000125966797791927 1.01228785157436e-22 -0.00025196011990939)
(0.00013285698994847 1.12088463784172e-06 -2.72384186731917e-21 0.000132873443975166 -2.74491710986589e-22 -0.000265730433923636)
(0.000126329133315315 1.28883051606754e-06 9.43538519898858e-22 0.00012641947003287 3.08391143517513e-23 -0.000252748603348185)
(0.000102415780260574 8.66161609864823e-07 3.78945388034894e-23 0.000102568513465097 2.33203380235843e-22 -0.00020498429372567)
(6.23697918154554e-05 1.16599741184681e-06 1.58978532605006e-20 6.2781006544679e-05 2.07078281849012e-21 -0.000125150798360134)
(5.80435037309081e-05 -1.66911315057949e-06 1.22714139396178e-19 5.72880260546097e-05 1.27506882511945e-20 -0.000115331529785518)
(7.96637536932649e-05 -2.71972011627628e-06 2.0681628088051e-19 7.77833427810206e-05 5.16019278250833e-20 -0.000157447096474285)
(0.000122653706127349 -6.08848677600874e-06 -1.26499005166046e-19 0.000116560761057805 -8.35894704100392e-20 -0.000239214467185154)
(0.00019565149321307 -8.43255404237037e-06 5.79052365856042e-19 0.000183922797324758 1.13127332538448e-19 -0.000379574290537828)
(0.00030772607088175 -1.11630182748527e-05 6.32535236735624e-19 0.000286980115982848 2.91696554285751e-19 -0.000594706186864598)
(0.000470614898065836 -1.21817281816223e-05 -7.65823355537368e-19 0.000441169795439639 -3.09058629792982e-19 -0.000911784693505475)
(0.000709136646233249 -1.21442427891885e-05 9.14944615570879e-19 0.000671736530346638 3.4317383472197e-19 -0.00138087317657989)
(0.00104039569281508 -9.60642863297939e-06 -9.57778977998864e-19 0.00100365646896006 -4.96672528401163e-19 -0.00204405216177514)
(0.00148076357897039 -6.03736242210143e-06 -9.64034069346018e-19 0.0014529373501272 -6.00846182680814e-19 -0.00293370092909758)
(0.00203235512547779 -1.07828692476074e-06 5.31116936656854e-19 0.00202656485128058 4.54692822561876e-19 -0.00405891997675837)
(0.00270065052551936 3.95712050330864e-06 -7.76385126941097e-19 0.00272446896508413 -4.02626278445914e-19 -0.00542511949060349)
(0.00344957674983706 9.28394080802849e-06 9.82788978504225e-19 0.00350978611126403 8.09843458155369e-19 -0.00695936286110109)
(0.00421878331618615 1.23397070014094e-05 1.09212405123947e-18 0.00430391355969636 7.66013266873673e-19 -0.00852269687588251)
(0.00496865427680684 1.51575174695891e-05 1.1903311136572e-18 0.0050806994864301 7.02486308807809e-19 -0.0100493537632369)