/*--------------------------------*- C++ -*----------------------------------*\
| =========                 |                                                 |
| \\      /  F ield         | OpenFOAM: The Open Source CFD Toolbox           |
|  \\    /   O peration     | Version:  2.4.0                                 |
|   \\  /    A nd           | Web:      www.OpenFOAM.org                      |
|    \\/     M anipulation  |                                                 |
\*---------------------------------------------------------------------------*/
FoamFile
{
    version     2.0;
    format      ascii;
    class       volSymmTensorField;
    location    "18000";
    object      bij;
}
// * * * * * * * * * * * * * * * * * * * * * * * * * * * * * * * * * * * * * //

dimensions      [0 0 0 0 0 0 0];

internalField   nonuniform List<symmTensor> 
15600
(
(0.00029749107402057 -0.00892702589860593 -3.13379953292286e-22 0.000355235988477316 3.43434166734746e-23 -0.000745994067243647)
(2.84636686264258e-05 -0.00984836512641319 -3.41742647679569e-21 0.000845149860152793 -5.90823811475916e-21 -0.000908991426415299)
(-0.00117386498960195 -0.00649854197496117 -1.11837403103702e-21 0.00150847539344503 7.44411999910547e-23 -0.000412096283263563)
(0.000197229531277415 -0.000109628359344734 7.25725683760108e-18 -0.000120719392940947 2.57465475604173e-17 -3.44008314425949e-07)
(0.00259614753690406 0.00205097169711892 6.00990198955639e-18 -0.00242237344838252 1.1310143751557e-17 -9.81575201277046e-05)
(0.0023507149283853 0.00116621724548247 -2.64354351574177e-20 -0.00224400488103176 -6.94026641527329e-21 -6.20558006306255e-05)
(0.00159144656538878 0.000524588937145434 -4.81062410881431e-21 -0.00154339692303458 -6.51567891782897e-21 -2.55461561184026e-05)
(0.00125222424570875 0.000290834329237112 -4.65376806897532e-20 -0.00121821239650071 4.01760482791032e-21 -1.50583432088408e-05)
(0.000996082086028129 0.000182498895562215 1.69546888555786e-18 -0.00097639204925484 -9.67071139410548e-19 -9.40765686132943e-06)
(0.000846713256431482 0.000144637944518519 1.34270970605553e-18 -0.000832244204281879 -9.83769298982052e-19 -6.78628553163286e-06)
(0.000727585836179525 0.00013533030092994 9.50803577669708e-21 -0.000720063687110174 -3.04499844936581e-22 -5.071316549151e-06)
(0.000692600777943701 0.000142208562357691 1.94413228006814e-25 -0.000688226214362348 -1.61337423068141e-24 -4.6473692911169e-06)
(0.000705581888379702 0.000155692910471613 2.91429908519686e-22 -0.000703889671903153 -1.49896357300154e-23 -4.87195015349779e-06)
(0.000790886650485918 0.000182420726527242 7.12929524185043e-21 -0.000790774329397598 8.36058959320287e-21 -6.16092636200437e-06)
(0.000967919424517234 0.000230279416234468 -1.3317634103822e-21 -0.000966764462533436 -1.20141975255576e-20 -9.24851486291946e-06)
(0.00124308065807972 0.000303215737826421 1.59801578073697e-22 -0.00123720924493663 -3.16927632954881e-24 -1.52454118635346e-05)
(0.00158843197743462 0.000402328756818168 5.4050281325948e-21 -0.00157218692064367 -8.92464145085203e-21 -2.48733842301292e-05)
(0.00196213451131812 0.000544270177450225 -1.43628429604507e-20 -0.00193177905620678 3.49379770314588e-21 -3.8226504950324e-05)
(0.00233816460691368 0.000748178717235282 1.02777979097985e-20 -0.00228971910176748 9.24440481719483e-21 -5.5316975650374e-05)
(0.00266345130110574 0.00102619222899569 6.5467242050543e-21 -0.00259619656538092 1.27325234688677e-20 -7.45380208612896e-05)
(0.00287386835913104 0.00138050575853568 -1.43071701759772e-20 -0.00279125918019954 1.58596966069673e-20 -9.2874916800371e-05)
(0.00293871360683609 0.00181334056222126 1.87948307922266e-20 -0.00284807779266837 -1.69634196972171e-20 -0.000109071808675964)
(0.0028610458792649 0.0022986258642543 -2.43984439837108e-20 -0.00276635465091187 -3.44866843606068e-20 -0.000123495275359728)
(0.00260991038873547 0.00276963182944266 -1.50018078782883e-20 -0.00251604633927504 -3.2824217884909e-20 -0.000133229269571916)
(0.00217889778749114 0.00316104613262393 -5.10720056686761e-21 -0.00209264245704998 -2.40828976158831e-20 -0.000136179926914805)
(0.00159904724516742 0.0034336498072438 3.17983804379873e-19 -0.00153295555851936 1.50529108205625e-20 -0.000133285914072499)
(0.000965594600098437 0.00351117580322724 1.92147303630891e-18 -0.000892879633672273 -8.97043872375853e-19 -0.000123437337380644)
(0.000509029948414171 0.00418732825172082 1.7560959048125e-18 -0.000405479822546056 -3.55510985395932e-19 -0.00016603908091435)
(0.000371161943404489 0.00598570501049051 -2.69778495642017e-19 -8.60436507143952e-05 -8.1978921427558e-22 -0.000335744540526275)
(0.000456452706462887 0.00770801024695537 7.27960626257238e-28 6.73911407783769e-05 2.17321261356009e-29 -0.000556204088092297)
(0.000519506846163448 0.00898975098195652 3.00714103841506e-19 0.000205860282391353 1.59567415652311e-20 -0.000756301506824601)
(0.000590608494472765 0.0100480768306231 6.09913916340727e-18 0.000329907446120194 7.94763657594792e-19 -0.000944667862724891)
(0.000654662984137629 0.0109039589370377 5.99846863790494e-18 0.000436830650896208 1.08348813560545e-18 -0.00111234259511413)
(0.000714237892935385 0.0116143618742447 -3.60409358556829e-19 0.000530366347943103 -3.45978631163406e-20 -0.00126191593700682)
(0.000767171047863098 0.0122032608416083 1.83168841616352e-23 0.000611224533542321 1.0686904504734e-22 -0.00139306480388498)
(0.000813690661710428 0.012693610767267 2.68034561767428e-23 0.000681334299026889 1.50368307031399e-22 -0.00150721042370843)
(0.000853341710093225 0.0130986659715207 -1.66354545700535e-23 0.000741480439845265 -1.46499256503751e-22 -0.00160488970916978)
(0.000886203025844822 0.0134293403288189 -9.33964344848031e-19 0.000792563848372943 -1.24972786224443e-19 -0.00168690232872633)
(0.00091223991343544 0.0136930756153218 -8.78301303125466e-18 0.000835108684362946 -2.54075582487881e-18 -0.00175377477465959)
(0.000931573965536166 0.0138958838818194 -7.01542360346552e-18 0.000869618558802326 -2.75079521689059e-18 -0.0018060784869146)
(0.000944340782677998 0.0140423876148123 1.07794774637124e-18 0.000896472942236395 1.59343223037637e-19 -0.0018443347177656)
(0.000950752634904872 0.0141365193195129 2.68168321812799e-23 0.000916047464231547 2.85130254899483e-23 -0.00186912061659163)
(0.000951048527668774 0.0141816577047299 -8.90228130989388e-23 0.000928716819437276 -2.08824548563122e-22 -0.00188105622389978)
(0.000945479860250566 0.0141807568476715 1.28827395734745e-22 0.000934990154761896 4.06464178108908e-22 -0.00188079943158082)
(0.000934310489895902 0.0141357387648893 -7.74314036158112e-23 0.000935110646097256 -2.63870068547713e-23 -0.00186886105174328)
(0.000917969807185098 0.0140491469935471 2.27033786135116e-18 0.000929383601611903 3.68996096997245e-19 -0.00184602187226811)
(0.000896929278843425 0.013923878455036 1.10753097916302e-17 0.00091829190708899 5.2816360216174e-18 -0.00181323842981627)
(0.000871673849562347 0.0137625457837937 6.38379040564268e-18 0.000902314816947041 5.12180122300176e-18 -0.00177145475618858)
(0.000842707192551323 0.0135677865387689 -2.47409216029715e-18 0.000881953152046112 -3.97915313774499e-19 -0.00172166645224994)
(0.000810533990369975 0.0133421820495032 -6.98655896343518e-23 0.000857719778922904 -1.73675080145797e-22 -0.00166488275192844)
(0.00077566023646101 0.0130882694748273 6.832733313008e-23 0.000830128181833003 3.53259596113206e-22 -0.00160211497368832)
(0.000738585596272511 0.0128085413730977 3.31545520014685e-18 0.000799686872473771 5.30037361088855e-19 -0.00153436331528814)
(0.000699796887371916 0.0125054421926821 1.12863942609488e-17 0.000766893408895008 6.81676307826357e-18 -0.00146260447672767)
(0.00065976201229003 0.0121813623887479 4.33958600055899e-18 0.000732229116753348 6.17446663761063e-18 -0.00138778033130602)
(0.000618924301455546 0.0118386290428788 -3.52630169961645e-18 0.000696154267029127 -5.33365303420078e-19 -0.00131078745837026)
(0.00057769795199968 0.0114794949601461 -1.00810867563525e-23 0.000659103681122253 3.36812839093139e-24 -0.0012324680870557)
(0.000536464650802694 0.011106129663453 7.3923203253561e-24 0.000621482708622075 5.95818271394934e-24 -0.00115360321392306)
(0.000495571979984098 0.0107206115719551 -1.16543428230335e-23 0.00058366513318371 -4.59991312766159e-23 -0.0010749075861531)
(0.0004553338043161 0.0103249321244328 -2.16853300919623e-23 0.000545988959782938 -7.573550848918e-23 -0.000997028559627433)
(0.000416031402319782 0.009921000844958 1.32948123430199e-23 0.000508759519769243 6.38361035106163e-24 -0.000920545958785732)
(0.000377915607405887 0.00951066238592585 -6.70697721162782e-24 0.000472243757756103 3.28530822302768e-23 -0.000845974891735368)
(0.000341204076701127 0.009095701528182 -1.14820852143576e-23 0.000436680650856095 -1.15793617919245e-22 -0.000773766451408911)
(0.000306077180330914 0.00867781707480987 4.0243838076066e-24 0.000402274822499243 -6.67045806175706e-23 -0.000704303976980638)
(0.000272677912302208 0.00825860183913484 9.72373075711867e-24 0.000369202945444535 1.50850048584576e-22 -0.000637902031846004)
(0.000241113083489522 0.00783952538503695 1.79801066117371e-23 0.000337605063427799 2.20421917137787e-24 -0.00057480741589321)
(0.000211456548550898 0.00742192592219601 8.8863308514311e-24 0.000307594963292415 1.85991744264774e-22 -0.000515202629663936)
(0.000183754453572811 0.00700701642508655 -4.39301652625132e-23 0.000279249558370905 -1.91004598491123e-22 -0.000459212065508441)
(0.000158030030859951 0.00659590513816236 1.80680579088734e-23 0.000252624366319125 1.99118386075251e-24 -0.000406909826201136)
(0.000134290078679743 0.00618961646967752 0 0.000227742482529859 0 -0.000358326914762492)
(0.000112528966768208 0.0057891447528042 0 0.000204609921192674 0 -0.000313461060584719)
(9.27249659421516e-05 0.00539545140511783 0 0.000183213551324933 0 -0.000272278589846016)
(7.48389448349323e-05 0.00500945514965047 -7.23601798648961e-18 0.000163530748710047 -7.28791911499136e-19 -0.000234715853249856)
(5.88149802591152e-05 0.00463200667433486 -1.75437338053151e-17 0.000145523494306924 -4.82569699974127e-18 -0.000200679855992842)
(4.4583712019216e-05 0.00426388862983554 -5.24458475945447e-18 0.000129143450552806 -4.49277340938888e-18 -0.000170051989074738)
(3.20680063200887e-05 0.00390581664936093 1.2590412115143e-17 0.000114327688281163 4.27233765527512e-19 -0.000142691811105015)
(2.11876020726152e-05 0.00355849308534914 7.53556184976875e-18 0.000101000393009007 6.66185299091785e-19 -0.000118444224078178)
(1.18596320649696e-05 0.00322261677396953 -1.46947677488126e-22 8.90794662901583e-05 -9.70434320850728e-22 -9.71418688850144e-05)
(3.99696596671968e-06 0.00289892426647202 9.11451948656012e-24 7.8472523711852e-05 2.16889609112246e-24 -7.86089354947367e-05)
(-2.48854309257148e-06 0.00258815213973804 -8.4297668834864e-18 6.90897427841351e-05 -7.13978686288432e-19 -6.26597723985222e-05)
(-7.68778236846736e-06 0.00229114106505487 -9.69390124091087e-18 6.08220990635897e-05 1.54781569016674e-18 -4.91050905337641e-05)
(-1.16834710473401e-05 0.00200873294914212 7.47223875536766e-18 5.35748548972096e-05 5.83058881940748e-18 -3.7747158293472e-05)
(-1.45555956772713e-05 0.00174208259339327 8.49936239647775e-18 4.72073612304879e-05 6.60286649983546e-19 -2.83921762102538e-05)
(-1.6363077089578e-05 0.00149237612560786 8.1114646554749e-23 4.16226980325025e-05 -1.10475750049705e-21 -2.08374443703306e-05)
(-1.7160836746951e-05 0.00126154103098658 9.15408442451275e-24 3.6625472499889e-05 -2.06103761544845e-22 -1.48909804055059e-05)
(-1.69652537421617e-05 0.00105153841049423 2.11880939550073e-23 3.2141523776225e-05 1.35735463625072e-21 -1.03468675979786e-05)
(-1.57746593075226e-05 0.000865859690412922 -2.71934100444606e-22 2.78762087207523e-05 4.90046153785466e-21 -7.01602711163305e-06)
(-1.35375240884932e-05 0.000708227825213943 -9.05593208631572e-23 2.37145743966128e-05 -7.3399521342417e-21 -4.69422694601012e-06)
(-1.01036276346612e-05 0.000584989386924243 7.15157649942071e-22 1.91450707287271e-05 2.42719932804049e-21 -3.20244924278531e-06)
(-5.31295226702758e-06 0.000504184679904747 -6.72099033150017e-22 1.40497235918674e-05 2.37784145015051e-21 -2.37820931954618e-06)
(1.34650362898431e-06 0.000476796642794994 -6.70438325504599e-23 7.82234817194959e-06 -7.78216207281817e-21 -2.12614152606888e-06)
(9.94918583916575e-06 0.000520250923377743 5.40207946438579e-22 -2.77252998925659e-07 8.35048603903355e-21 -2.53147775208127e-06)
(2.79137225648144e-05 0.000655577853443782 -2.6390866769666e-22 -1.25924759142186e-05 -2.98411456910286e-21 -4.02298561915367e-06)
(-4.24556298119072e-05 0.000993047425289355 -2.46397683733398e-22 4.95560269524142e-05 -2.40908737531669e-23 -9.24319039848545e-06)
(-0.000266582864058891 0.0010463895627555 6.47151621654126e-20 0.00026835729318398 4.06257807466032e-21 -1.0910656126603e-05)
(-0.000400839400996079 0.000848596001004313 -1.30093815878332e-19 0.000372337165280494 6.33182955957509e-19 -8.13462677983361e-06)
(-0.000416324259005553 0.00057564468606631 2.62827564364543e-19 0.000372800365147877 -6.99094338802879e-19 -4.555499806172e-06)
(-0.000254308913315155 0.00022545862743142 -8.19779781062148e-19 0.000190846098500718 2.41105183391206e-18 -9.36097084305608e-07)
(7.42078307430776e-05 -0.000114685210176891 -6.85410969189775e-19 -0.000145092825771491 9.90962694105076e-19 -2.31680228854848e-07)
(0.000574037165068143 -0.000421493155575269 5.06560754508161e-19 -0.000643909529671868 -9.01206363495386e-19 -5.12928123579006e-06)
(0.00126648827894322 -0.000690587343119514 -5.10819883899457e-19 -0.00131252586078468 7.90647560944428e-19 -2.00215519552579e-05)
(0.00211126113618731 -0.000912893640920997 -1.91187000769581e-19 -0.00211324305904124 7.7229119920788e-20 -4.95447997980251e-05)
(0.00306297549326986 -0.00110059795916418 5.80022914454248e-19 -0.00299398521292264 -6.00296416316581e-19 -9.71352966091974e-05)
(0.00406853009137361 -0.00127074648447792 -4.43627973418169e-19 -0.00390759578418084 6.07389611141268e-19 -0.000163860554498363)
(0.00509474070800562 -0.00145163788244934 5.23539924143027e-20 -0.00481905301831135 2.40568884887906e-21 -0.000249453346079888)
(0.00602055237279618 -0.00163558628818829 -3.65826137126159e-19 -0.00563303520339281 4.50929495484561e-19 -0.000342416352978791)
(0.00678801724504561 -0.00176593994079121 -6.68913451321815e-21 -0.00629870538132873 -6.82813308404049e-20 -0.000429369708405725)
(0.00746316991077505 -0.00183214285153057 -9.95916491099587e-21 -0.00687751674797369 -6.9355048870421e-20 -0.000511901520306692)
(0.00809505562847482 -0.00184051036167732 -1.34816902144199e-20 -0.00741357835279345 -6.9672683585368e-20 -0.000593567645036361)
(0.00874402787116891 -0.0018031327470763 -3.89674689796116e-19 -0.00795505947769132 2.38669730587901e-19 -0.000681746125937509)
(0.00949661840225448 -0.00173674456286424 -2.7223513674673e-20 -0.00857066247375987 6.52183518136317e-20 -0.000790446115680551)
(0.0106142882061305 -0.00176650181834755 -1.63708832937429e-19 -0.00945207093684241 2.68106571506103e-19 -0.000968902012238867)
(0.0122036659188528 -0.00215881367198251 -1.59775053871459e-19 -0.0106761872708248 1.42263170381895e-19 -0.001264442548389)
(0.0141652245916663 -0.00311443613087617 1.01543812017953e-19 -0.0121302795742711 -1.02852696119087e-19 -0.00170208898287359)
(0.0167601591128894 -0.00508391043392244 1.00567928881177e-20 -0.0138983655655959 4.78854520333391e-22 -0.00242953874252454)
(0.0195736757727758 -0.00880864017918876 -8.81599312387972e-21 -0.0154886189641886 1.31597028828048e-20 -0.00358317251706407)
(0.0212052610810177 -0.0153071413733893 -6.00003275746137e-20 -0.0153725352872397 6.72636199499807e-20 -0.00529281998866193)
(0.0157973312084742 -0.0207208245624772 8.52175643349652e-20 -0.0100102581546614 -1.23239182756507e-21 -0.00556117636810699)
(0.00700562382171488 -0.0186804647571933 -6.42449709164573e-21 -0.00338984286256026 1.64031422878632e-21 -0.00351305073204193)
(0.00162450282385004 -0.0122379502013943 2.66184533539095e-21 -0.000251379870075707 -1.34251897386113e-20 -0.00140945259925553)
(0.000401504007502535 -0.00866843079429041 6.50927962842503e-22 0.00025987378290906 -8.2337001607701e-23 -0.000703106148360474)
(0.0146352227861919 -0.0565715136249026 -2.20415759346902e-23 0.0158361640260064 2.459403687855e-23 -0.0297280472905329)
(0.012078635820306 -0.0544960680461006 -6.99450708049875e-20 0.0162777944851353 8.26166941469341e-20 -0.0276286053891619)
(0.0016232184928589 -0.0423344156910207 6.67643133420494e-18 0.0155578873661025 -4.31969227781014e-18 -0.0172228865340403)
(-0.00391112535099138 -0.0162799239604961 4.05879526052678e-17 0.00637002635687439 -1.20631348745306e-16 -0.00273292584356923)
(0.00861693982252404 0.00501274182328031 -1.04691797293693e-16 -0.00823195619435012 -3.40543943571723e-17 -0.000902956093144343)
(0.0110570584213469 0.00546768471267063 -4.23278283825274e-18 -0.00999280049384307 -2.92646008580045e-19 -0.00131874419870557)
(0.00793359080153132 0.0028179945269189 3.68949357322795e-20 -0.0074723519808462 3.52519637747804e-20 -0.000630201207904288)
(0.00639104132534425 0.00159795939984091 3.95951999311518e-19 -0.0060952585107697 -4.37235820589547e-20 -0.000388757281228411)
(0.00527766598401648 0.00105671172953912 -6.0793152464719e-18 -0.00508655138787504 9.31501970074507e-18 -0.000261775598482451)
(0.00463688316928578 0.000866273630967083 -7.28400816901103e-18 -0.00447245918422341 6.0858465637265e-18 -0.000201110972447902)
(0.00419617606701343 0.00084004646221177 -8.82209586951458e-20 -0.00404802978872035 1.72037508905657e-21 -0.000165547283377974)
(0.00417406557549375 0.00088680853982135 -1.44016929944696e-23 -0.0040085040059155 1.2923252877211e-23 -0.000163905893357287)
(0.00445248878772325 0.000982024370464429 2.80365632590754e-21 -0.00424732520025145 -1.10648698695026e-22 -0.00018595693889311)
(0.00514918866835079 0.00114003860741274 7.1071055723233e-21 -0.0048690417456142 -8.15736847037774e-20 -0.000246751431918996)
(0.00635218015625025 0.00139942200332217 -1.25855587343176e-19 -0.00593587653298566 4.07460020801576e-20 -0.000371218385194434)
(0.00803840482074636 0.00177441124501366 2.89471758168855e-21 -0.00740917032783305 -9.52550030468693e-23 -0.000587175079526458)
(0.0100464609452574 0.0022871182727109 -8.00178746494905e-20 -0.00910677916571888 -6.63969043858023e-22 -0.000906402677284029)
(0.0121753790580942 0.00304536987409255 1.55516100224528e-19 -0.0108349677187756 3.93015150283982e-20 -0.00132456678133499)
(0.0142780848059035 0.00415005799086766 -5.83124400942769e-20 -0.0124494546024116 -4.66697059403527e-20 -0.00183145380885416)
(0.0161249398666131 0.00569285759739211 -4.91443794989985e-20 -0.0137520378333794 -6.13989244696712e-20 -0.00239066814129204)
(0.0175215865895945 0.00775377751297351 1.85573070911372e-19 -0.0145557824956661 4.62020202337149e-20 -0.00296828199851957)
(0.0183241685200783 0.0103854701791087 -1.69809451197239e-19 -0.0147295984680868 3.53210196903898e-20 -0.00356230743691102)
(0.0184263869027915 0.0134548866430089 -1.4482842302676e-19 -0.0141722181614289 1.84142540297875e-19 -0.00417480911105029)
(0.0176688607066081 0.0167410069796372 1.46155666551082e-19 -0.0127441530082612 1.68395156135241e-19 -0.00477735294007748)
(0.0159334373303733 0.0200019330862604 -1.46134485992614e-19 -0.0103692731482111 -4.70906440462774e-21 -0.00534867208309837)
(0.0133134305470278 0.0230762438956919 -2.49661377262853e-18 -0.00715421920898079 -7.49902108898246e-19 -0.00594824910954365)
(0.0108767726244346 0.0265156725461032 -2.23495212043848e-17 -0.00338311000939633 -2.12075667631024e-17 -0.00701993102351476)
(0.00864104963733357 0.0305223107464895 -1.67259136103037e-17 0.000517958184899571 -1.87178568348815e-17 -0.00884108629146072)
(0.00870585300717177 0.035755946932947 1.74217971515401e-18 0.00359732205706128 7.40473979360961e-19 -0.0119824237007288)
(0.0100067800321467 0.0406259992947601 -8.95971129833526e-27 0.00582712252172703 -4.486928226939e-27 -0.0154171087825529)
(0.0108420755243772 0.0440659657375567 -1.71079136636983e-18 0.00766572054222104 -9.55727600745957e-19 -0.0181188871819357)
(0.0115742487266804 0.0466008541807976 -4.53548234896706e-17 0.00906938264355232 -3.88610464332387e-17 -0.0202510686959414)
(0.0121331375979095 0.0484736774111198 -4.65916727947961e-17 0.0101522337330959 -4.24838009314129e-17 -0.0219079407160821)
(0.0125662263422706 0.0498724224238071 1.94615878418696e-18 0.0109883907568069 1.27551766040493e-18 -0.023189276862517)
(0.0128767874883669 0.0508967236897363 1.48423703941193e-21 0.0116254227061034 1.05217583329155e-21 -0.0241528178649019)
(0.0130814091658194 0.0516229547122686 1.26067755702942e-21 0.0121012073660076 9.23750574559132e-22 -0.0248491969100971)
(0.0131881874577497 0.0520989560633008 -1.48118569686299e-21 0.012440614851986 -1.08676496724209e-21 -0.0253126874034614)
(0.0132069013387685 0.0523613341063893 4.83417847504945e-18 0.0126634201579255 3.40611738291753e-18 -0.0255718913292586)
(0.013144893640539 0.0524360238828292 8.83393102057724e-17 0.0127841884590748 9.02035744654784e-17 -0.0256488851865335)
(0.0130094281822856 0.0523433961066795 8.43695855824735e-17 0.012814884451163 9.16596416654291e-17 -0.0255625407920201)
(0.0128069027682436 0.05209912552651 -5.46020595277408e-18 0.0127651628090858 -3.85393523273095e-18 -0.0253288187694095)
(0.0125434992599765 0.0517159904860558 -1.18405556595453e-21 0.0126433792587923 -1.13683942253953e-21 -0.0249619514238493)
(0.0122244395188064 0.0512033913521578 9.06543735001444e-22 0.0124564288066673 1.13551625513295e-21 -0.0244737466467449)
(0.0118520263409449 0.0505647539072433 2.64054597001028e-23 0.0122086688438968 -5.82638037038493e-22 -0.0238711531565232)
(0.0114329780938721 0.0498106563688185 8.41211310643585e-22 0.0119075034066119 9.17700557045532e-22 -0.0231685009184391)
(0.0109727160136091 0.0489456452121856 -1.14948318781459e-17 0.0115567843995882 -7.69961636704071e-18 -0.0223746808778991)
(0.0104845712686685 0.0479933486684089 -1.4973049386371e-16 0.0111699430675271 -1.76731448769541e-16 -0.0215161384064453)
(0.00997349475644433 0.0469605583240229 -1.31150936797611e-16 0.010752554072725 -1.72579307102163e-16 -0.0206034862498768)
(0.00944464517726578 0.0458540089661229 1.24308658479065e-17 0.0103099225229279 7.81316483548857e-18 -0.0196471268462017)
(0.00890289038108936 0.0446801032204419 8.31512888663279e-22 0.00984711958883598 1.09553989475714e-21 -0.0186569691923874)
(0.00835285190981677 0.0434449508113573 -3.84945188911932e-22 0.00936893571610291 -8.93921621431772e-22 -0.017642404034912)
(0.00779888923070709 0.0421544143077235 -1.69805373689218e-17 0.00887988956223568 -9.88543909121251e-18 -0.0166122971267266)
(0.00724508621313522 0.0408141352044948 -1.73107267552687e-16 0.00838422538978801 -2.37250601797109e-16 -0.0155749721058434)
(0.0066952368267176 0.0394295499885996 -1.40171335320453e-16 0.00788591021374267 -2.29629745666725e-16 -0.0145381919906071)
(0.00615283244200611 0.038005898422581 1.81018613298081e-17 0.00738863004490023 9.53280993140112e-18 -0.0135091415257477)
(0.00562105577057655 0.0365482298019701 -5.32034452514178e-23 0.00689578487919844 -1.50889830809959e-23 -0.0124944147257863)
(0.00510278104067631 0.0350614102811541 -6.68695186210884e-23 0.00641048203927768 -2.06132241245687e-23 -0.0115000095499293)
(0.00460058660929889 0.033550140942666 -4.87008330687276e-22 0.00593553592478294 -8.29095584501421e-22 -0.0105313336981658)
(0.00411677029831754 0.0320189788469286 3.56353642132058e-22 0.00547345380420316 6.53894712305269e-22 -0.0095932167582663)
(0.0036533654919422 0.0304723680564516 -1.23507967790526e-22 0.00502645742815448 -2.3052875220381e-22 -0.00868992660970498)
(0.0032121410141458 0.0289146491296397 3.18262208258798e-23 0.00459646251603198 1.91809446563251e-23 -0.00782517803329519)
(0.0027945634039154 0.0273500366731342 3.77570489825168e-23 0.00418514124360146 4.11675969275812e-22 -0.00700212264928177)
(0.0024017749703324 0.0257825648585584 -3.4341048595306e-22 0.00379389757186255 -9.54075956556757e-22 -0.0062233361507679)
(0.00203460525564756 0.0242160609740624 2.06694796439774e-22 0.00342389969048944 8.79862522416159e-23 -0.00549082640960916)
(0.0016935927954703 0.0226541245481214 5.7569808551662e-23 0.00307603865813371 4.38534664068574e-22 -0.00480605613003306)
(0.00137902122340394 0.0211001355238522 -3.20418273097511e-22 0.00275097835153088 -1.09274251660545e-21 -0.00416997846229998)
(0.00109096576941594 0.0195572854657624 5.812498310046e-22 0.00244909921632772 2.13843126813708e-21 -0.00358308641528996)
(0.000829328420704948 0.0180286256439128 -2.63493793930763e-22 0.00217057369510958 -1.0514661059394e-21 -0.00304545964785125)
(0.000593885941042273 0.0165171343669545 2.56678554009643e-22 0.00191530658435548 1.11784212249053e-21 -0.00255681434148336)
(0.000384283732308406 0.0150257744670022 5.53367990746352e-24 0.0016830260383613 2.64869940301283e-23 -0.00211653754024455)
(0.000199991902997265 0.0135574593260967 -2.74238258990644e-22 0.00147329286606274 1.1139145750312e-21 -0.00172369256639545)
(4.02945346175622e-05 0.0121150087088336 4.29818670754187e-17 0.00128555555437279 8.65506202033639e-18 -0.00137702733946534)
(-9.56897382785583e-05 0.0107011199307133 1.71750302204885e-16 0.00111911723342801 4.74650544143124e-16 -0.00107499471653542)
(-0.000208969402974359 0.00931838317747787 1.51199143415168e-16 0.000973154464007067 9.36127131889765e-16 -0.000815784990778013)
(-0.000300620483775601 0.00796933466142936 -2.4043832121477e-17 0.000846679896981113 4.63583186034143e-16 -0.000597362251219923)
(-0.000371764109481639 0.00665657241063308 -4.62890100594516e-17 0.0007385511083548 -6.13601166933137e-18 -0.000417501289130974)
(-0.000423571022416922 0.00538278517560623 -1.12215282253501e-21 0.000647513907290499 8.3870627407344e-21 -0.000273800095991856)
(-0.000457288759027326 0.00415083036131779 -9.77673033686406e-22 0.000572189639076022 -3.22104385998441e-21 -0.000163694221226652)
(-0.000474191980363181 0.00296369349312331 5.36242265307758e-17 0.000511123407271891 4.86014323361598e-18 -8.44560530030493e-05)
(-0.000475620163015588 0.00182474795474197 7.65215702339577e-17 0.000462666921104932 5.35997553276957e-16 -3.32133029594766e-05)
(-0.000462821797540945 0.000737607561750216 -4.16166043061563e-17 0.000425092196743597 5.33146402188819e-16 -6.93329848856264e-06)
(-0.000437091357150385 -0.000293079216609073 -5.56947307294514e-17 0.000396270333387166 -2.78352272399652e-18 -2.42675103615518e-06)
(-0.00039947347900328 -0.00126220541382836 -7.68614885185759e-22 0.000374086202479176 -5.81328555474466e-22 -1.63047226965564e-05)
(-0.000351131488502418 -0.00216233755039313 1.796386354838e-21 0.000355579456406346 -1.36562221091183e-20 -4.49144984815119e-05)
(-0.000292721520286272 -0.00298534373910003 2.48346469725635e-21 0.000337789640826158 1.4562340984404e-20 -8.43141504164646e-05)
(-0.000224980056095521 -0.00371835011138235 -2.30429708347609e-21 0.000316057200241156 -1.30458109385642e-20 -0.000130043838968712)
(-0.00014793193500234 -0.00434667601221892 -3.6936816501847e-21 0.00028640191682053 3.45919285837263e-20 -0.000177212372666669)
(-6.08531551784169e-05 -0.00484689416831985 3.03135322445189e-21 0.000240999260875951 -2.17190642251538e-20 -0.000220013710275063)
(3.69706125569397e-05 -0.00518888421988798 -7.70148117444205e-23 0.00017343359603234 -2.23899164974675e-20 -0.00025196011990939)
(0.000149494621605475 -0.00532902511571155 7.30606357029398e-22 7.12671943052913e-05 3.61815339509044e-20 -0.000265730433923636)
(0.00028187841818348 -0.00519398677921069 9.52067494810434e-22 -8.21785395095435e-05 -1.29143083654266e-20 -0.000252748603348185)
(0.000493719785263521 -0.00466260208491375 -3.44920937524041e-21 -0.000328452601197743 -6.58400134243158e-22 -0.00020498429372567)
(0.000663012762726433 -0.00360132532279669 2.8979046889979e-20 -0.000607074119468625 -3.10139572072543e-19 -0.000125150798360134)
(0.000885284638769959 -0.00342676472258665 4.3241054619875e-19 -0.000665745169450289 -2.47254079856489e-18 -0.000115331529785518)
(0.00149526772205379 -0.00388071041068163 5.55349342717679e-19 -0.00118785035316095 -3.63156442133586e-18 -0.000157447096474285)
(0.0025299116966501 -0.00452946324234202 1.12371800796992e-19 -0.0020028682444769 2.0267843185913e-18 -0.000239214467185154)
(0.00400571596309622 -0.00523920879225714 3.29734701606586e-18 -0.00328141037027727 -5.91706370173591e-18 -0.000379574290537828)
(0.00594064288128355 -0.00585323962940571 2.61950425204012e-18 -0.00493733316195821 -5.60275015053487e-18 -0.000594706186864598)
(0.00828526222965602 -0.00630697150278365 -3.64161768067267e-18 -0.00695965379466726 4.91872496433642e-18 -0.000911784693505475)
(0.0110962430655702 -0.00663035389970595 4.34868839044517e-18 -0.0093229801435549 -4.25756457565996e-18 -0.00138087317657989)
(0.0142907755636848 -0.00686051837990229 -3.95585512262298e-18 -0.0119468753001753 3.75735355194492e-18 -0.00204405216177514)
(0.0178194302926584 -0.00705619653017774 -3.56735724304152e-18 -0.014702609247733 3.15781224308007e-18 -0.00293370092909758)
(0.0215702967283581 -0.00727203253061182 1.69156778973852e-18 -0.0174796642387342 -1.63714018132996e-18 -0.00405891997675837)
(0.0255005606417532 -0.00759036493949302 -2.579436775685e-18 -0.0201868649584443 1.45365870862403e-18 -0.00542511949060349)
(0.0293928813530765 -0.00802941634565648 2.80934725733661e-18 -0.0226804828356757 -1.97236183406789e-18 -0.00695936286110109)
(0.0330550086357957 -0.00839284076778462 3.06085855294466e-18 -0.0248462509502104 -1.69240754998591e-18 -0.00852269687588251)
(0.0364210186786617 -0.0085458359499524 3.28497570939734e-18 -0.0267502745320863 -1.45104146842475e-18 -0.0100493537632369)
(0.039571615544437 -0.00847435878077417 3.35038058365221e-18 -0.0284825885926993 -1.21984672524215e-18 -0.0115503869053869)
(0.0426503398428546 -0.00820189327096909 4.23346646529922e-18 -0.0301341548733347 -1.80937072152169e-18 -0.0130853069406195)
(0.0458224313807387 -0.00777821834232981 -2.1179820122828e-18 -0.0318085279302101 7.23367702971027e-19 -0.0147595029064103)