/*--------------------------------*- C++ -*----------------------------------*\
| =========                 |                                                 |
| \\      /  F ield         | OpenFOAM: The Open Source CFD Toolbox           |
|  \\    /   O peration     | Version:  2.4.0                                 |
|   \\  /    A nd           | Web:      www.OpenFOAM.org                      |
|    \\/     M anipulation  |                                                 |
\*---------------------------------------------------------------------------*/
FoamFile
{
    version     2.0;
    format      ascii;
    class       volScalarField;
    location    "18000";
    object      k;
}
// * * * * * * * * * * * * * * * * * * * * * * * * * * * * * * * * * * * * * //

dimensions      [0 2 -2 0 0 0 0];

internalField   nonuniform List<scalar> 
15600
(
0.000165161294678023
0.000207019182553288
8.0186126997463e-05
1.18492713410909e-05
3.23785892589453e-05
1.70785375784369e-05
6.74161302688407e-06
3.75991325973289e-06
2.1592629726919e-06
1.40307496556703e-06
9.22419873147108e-07
7.53089600282062e-07
7.10007630717756e-07
8.15005622312138e-07
1.12503960361963e-06
1.73726660884294e-06
2.68889087878729e-06
3.91568357148507e-06
5.36132471586035e-06
6.82307336003759e-06
7.99233427370917e-06
8.79551588412027e-06
9.41497677776777e-06
9.73330805848446e-06
9.6425059380269e-06
9.27211944006571e-06
8.11013819680142e-06
9.59904615814355e-06
1.92589582882816e-05
3.35610009172379e-05
4.73718653805372e-05
6.10981861773333e-05
7.39426244681666e-05
8.59665286129136e-05
9.70541923374646e-05
0.000107247363145773
0.000116530526014218
0.000124918829775172
0.000132409897000437
0.000139009474204155
0.000144722854835178
0.000149565180823502
0.000153557365876106
0.000156713074635941
0.000159001196239845
0.000160391138239035
0.000160968670981064
0.000160774533246035
0.000159859044175719
0.000158276814427178
0.000156085984237882
0.000153347153445754
0.000150122326240529
0.000146473891005753
0.000142463596376831
0.000138151558388146
0.000133595386969756
0.000128849426670737
0.000123964368679898
0.000118987141308373
0.000113961127914954
0.000108926548207909
0.000103919821469462
9.89732319473553e-05
9.41143993984028e-05
8.9366296999119e-05
8.47471076020849e-05
8.02709352461499e-05
7.59479988449349e-05
7.17862329752438e-05
6.77916822762916e-05
6.39688291944796e-05
6.0320125865898e-05
5.68460130805318e-05
5.35446616312651e-05
5.04126824063192e-05
4.74456267404873e-05
4.46384698880468e-05
4.19854940944159e-05
3.94804992823837e-05
3.71163115319426e-05
3.48853658344388e-05
3.2779313007207e-05
3.07898554215735e-05
2.89081791556683e-05
2.71249029267917e-05
2.54317520531153e-05
2.38151856492684e-05
2.22706836388952e-05
2.07864585155501e-05
1.94215453540957e-05
1.7859650934012e-05
1.77479930936096e-05
1.9004756408924e-05
1.97807882955197e-05
2.05865372516183e-05
2.06014354335077e-05
2.01754494595855e-05
1.99827608477656e-05
2.49367963089814e-05
3.20384757040986e-05
4.16127860391471e-05
5.38898688067604e-05
6.90854573032426e-05
8.50774509304766e-05
0.000100782771274378
0.000117925804644908
0.000138197473404049
0.000164550536549626
0.000202969022514614
0.000270569294916343
0.000382046239171097
0.000547279356569084
0.000817832813949123
0.0012193381938774
0.00171407276033533
0.00150809962779931
0.00074014334723879
0.000232400989577367
0.000127312132576424
0.00102176066437622
0.000875185690523593
0.000466133250361588
0.000153785296015506
2.60858480352305e-05
7.10237515293854e-06
3.71776154312229e-06
2.05144192509802e-06
1.6716985538504e-06
1.41195687310954e-06
1.31247121887796e-06
1.40191990704005e-06
1.6727226711479e-06
2.16790495247904e-06
3.03513960966864e-06
4.46447379980105e-06
6.66941814305004e-06
9.81893347873915e-06
1.41397352867627e-05
1.97953090611963e-05
2.67963609759229e-05
3.50324576763036e-05
4.46012883130144e-05
5.52642788242889e-05
6.61133511478364e-05
7.63243044256875e-05
8.52372853373164e-05
9.47385413480855e-05
0.000125856840056482
0.000174498634542242
0.000222598105617891
0.000269859945906226
0.000316388126106208
0.000362101941672482
0.000406988564627021
0.000451045101450915
0.000494207062109648
0.000536413140976124
0.000577580035714724
0.000617641720703622
0.000656563404701652
0.000694384002592919
0.000731199655978296
0.000766983263107943
0.00080100926532591
0.000832692980647204
0.000862179002028418
0.000889363760605557
0.000914199646400626
0.000936657043002913
0.000956725415805179
0.00097441258417855
0.000989743712182317
0.00100276004241029
0.0010135170607254
0.00102208188675357
0.00102853005419605
0.0010329423562655
0.00103540193793363
0.00103599543158332
0.00103481351996977
0.00103195772596767
0.00102753663528074
0.00102166461118331
0.00101445325849575
0.00100601009434038
0.00099642812101158
0.000985788926007466
0.000974155651555207
0.000961586627494813
0.000948140324061751
0.000933881191970456
0.000918871892453335
0.000903169167879897
0.000886813487440221
0.000869828695449526
0.000852228453453111
0.000834016690466738
0.000815191802775821
0.000795730918569371
0.000775598081184721
0.000754704777661221
0.000732952589199167
0.00071014506392377
0.000686095238406637
0.000660412986308121
0.000632764917223192
0.000602393404008394
0.000568692324325217
0.00053064761443434
0.000489457900296756
0.00043558043183121
0.000399492133632821
0.000421370384397067
0.000454742895386364
0.000498044113373507
0.000538866666445543
0.000580841960696884
0.000624986923387111
0.000676626409647009
0.000726603081489598
0.000772990096117243
0.000810355714420649
0.000835693492800489
0.000836441188313934
0.000823054618400599
0.000805495341501992
0.000789504762354153
0.000781689821415963
0.00079357708711299
0.000847853432711235
0.000939497105025011
0.0010859510083924
0.00133400170823495
0.00169234752240967
0.00203509003137244
0.00183035892554646
0.00138672488207819
0.00102687737377095
0.00101543723295483
0.00573854172929445
0.00503040585921033
0.00323255735244371
0.00121642991157405
0.000177333742039791
3.70022429273932e-05
2.07180561052825e-05
1.13695737506669e-05
1.01204424415118e-05
8.99638378747424e-06
8.7317219441186e-06
9.52397848092345e-06
1.15229093171955e-05
1.50144225090575e-05
2.10081530237086e-05
3.07880479620404e-05
4.58397066793115e-05
6.74039136260731e-05
9.70134811867332e-05
0.000135742179460782
0.000183542900234278
0.000239392746644072
0.000303058847821875
0.000372179235351211
0.000441088390889587
0.000505885836200035
0.000568663269603585
0.000654451334540074
0.00084582198692491
0.00109778059436032
0.00132976462835961
0.00154587232905875
0.00175033991740372
0.00194447711757037
0.00212979643435403
0.00230719724667846
0.0024772872731372
0.00264048295263851
0.00279706735437834
0.00294729247668629
0.00309146084674317
0.00323006214065543
0.0033637375925704
0.00349188695299145
0.00361278820205932
0.00372536416903673
0.00382999153521056
0.00392658736025606
0.00401517402365737
0.00409579797083617
0.00416853542082225
0.0042334925937892
0.0042908054471529
0.00434063852193437
0.00438318207595912
0.00441864695607737
0.00444725764463363
0.00446924506788373
0.00448484085164103
0.00449428134376827
0.00449781323897363
0.00449571187187991
0.00448827383510363
0.0044758117963943
0.00445863322718907
0.00443703334424172
0.0044112688534195
0.00438156153266344
0.00434808181988562
0.00431098443399076
0.00427042634301115
0.00422658243065932
0.00417962516039539
0.00412970940827892
0.00407694082341212
0.00402137200701514
0.00396301897020963
0.00390186451656316
0.00383786482169578
0.00377090741646305
0.00370081696521858
0.0036272486718798
0.00354977572682055
0.00346765304275149
0.00338006115157004
0.0032855062998011
0.00318245802593911
0.00306789812201022
0.00293883400824302
0.00279030017305374
0.00262531674999889
0.00240540524938474
0.00224708050157217
0.00232294318353913
0.00247241179848504
0.0026684740406039
0.00286824250897008
0.00308094538380662
0.00331160406479209
0.00357332021978141
0.00383367587455843
0.00407913244549116
0.00428780150411051
0.00444396286513913
0.0045023780969426
0.00449566627429764
0.00446282125332951
0.00442953785032826
0.0044235938208004
0.00449476875170883
0.00473198059609282
0.00510601017833159
0.00566413224399016
0.00651176001594472
0.00760488397791286
0.00849321773754107
0.00801510848099773
0.00706489983165444
0.00617569720615749
0.00595742987239239
0.0112284761704875
0.010261970609707
0.00772655612608775
0.0039557439042988
0.0007583911941344
0.000148419834631269
7.77583353673674e-05
4.26250127070423e-05
3.78221920043351e-05
3.37642480321145e-05
3.27547891465034e-05
3.56043127545774e-05
4.29213593044206e-05
5.56781407118452e-05
7.74017995793533e-05
0.000112356291931738
0.000164989891417129
0.000238054651179771
0.000334050415678343
0.000452722102558326
0.000589692922060815
0.000738395200897275
0.000895754435523809
0.0010558508441905
0.00120885424884669
0.00135139946546041
0.00149472224019007
0.00168384540596456
0.00204647690047685
0.0024877004167824
0.00288321065194286
0.00324592934757151
0.00358505588474299
0.00390401418500277
0.0042061503882071
0.00449348144546396
0.00476743451205194
0.00502899499584669
0.00527886456840304
0.00551761079530088
0.00574576958960559
0.00596383782675788
0.00617167619030546
0.00636827805297857
0.00655269050977415
0.00672455011951499
0.00688411907568991
0.00703142984386905
0.00716659971056159
0.00728977304076453
0.00740112681556069
0.00750087138100271
0.00758925063212423
0.00766654084460677
0.00773304729707817
0.00778909809911927
0.00783503575791141
0.00787120822697364
0.00789796221743247
0.00791564738139578
0.00792462508764137
0.00792528951127486
0.00791806081959328
0.00790337652649705
0.00788166678884679
0.00785334232103279
0.0078187649378266
0.00777824727516382
0.00773203614916146
0.00768035263100112
0.00762341850436914
0.0075614751908645
0.00749476150166272
0.0074234919759773
0.00734781713365342
0.0072678160555906
0.00718351453762115
0.00709489328258394
0.00700189063321021
0.00690435999752621
0.00680205611637101
0.0066945283811961
0.0065811753242625
0.00646102127285055
0.00633289255318208
0.00619483434364125
0.00604461987330285
0.00587823789672382
0.00569124840195277
0.00547598163373153
0.00523002332286916
0.00490421877139104
0.00465981433069426
0.00474979231641265
0.00498329369892795
0.00530392239681691
0.00565717042185034
0.00604667445060719
0.00647946753551125
0.00696556383119994
0.00746097683522636
0.00793790263715322
0.00836394118200283
0.00871247218575787
0.00892763700917361
0.00904636264602709
0.00912426596256668
0.009202868975447
0.00932379094911449
0.00956037039054323
0.0100339934126129
0.0107029378143314
0.0116036529477888
0.0128264521503186
0.0142956261471561
0.0155109716879616
0.0148782527444325
0.0131915382504526
0.0117359775827796
0.0114354137412095
0.0150314246844176
0.0141091884277048
0.0115177668058131
0.00725040914795826
0.00212931910350168
0.000431389657545562
0.000204117511342762
0.000112003960554874
9.89986001176305e-05
8.88304734371219e-05
8.61045536020781e-05
9.31906554117252e-05
0.000111569036103071
0.000143292239632518
0.000195876873613737
0.000276917196042929
0.000391809680646571
0.000539719581816281
0.000717912030283624
0.000919232612599327
0.00113299670846379
0.00135016594840836
0.00156954729953302
0.00178707610277924
0.00199549765266948
0.00219702819176751
0.0024138348159603
0.00270818396760988
0.00320800637438944
0.00378277653174721
0.00429435813276957
0.00476260786671019
0.00519859069039329
0.00560724566413219
0.00599302165545171
0.00635869332440666
0.0067062478309015
0.00703707435372171
0.00735217344773667
0.00765231159229998
0.0079380713804466
0.00820972138865762
0.00846673147222116
0.00870854756245427
0.00893479754465292
0.00914548428205313
0.00934082594325482
0.00952095781521743
0.00968607768517345
0.00983641205012719
0.00997222021651636
0.0100937954555472
0.0102014655357164
0.0102955916656675
0.010376565052699
0.0104448005055743
0.0105007276050231
0.0105447810617777
0.0105773934861445
0.0105989987269818
0.0106100417949451
0.0106110004124936
0.0106023798503483
0.0105847022045326
0.0105584809065998
0.0105242053364229
0.0104823112815777
0.0104331770751796
0.010377107896744
0.0103143748352114
0.0102452466452122
0.0101700105322871
0.0100889512020343
0.010002325732699
0.00991032064028271
0.00981304127892106
0.00971052943276917
0.00960277576071928
0.00948971968266299
0.00937121218562425
0.0092469865557202
0.00911656596315785
0.00897928083386805
0.00883409294318473
0.00867968780732416
0.00851399106378337
0.00833450309318753
0.00813696325748411
0.00791638493525197
0.00766407872979122
0.00737337217070119
0.00699458607138777
0.00670046862471518
0.00677576730096319
0.00705043257014201
0.00744574381707625
0.00790232783228023
0.0084157883623121
0.0089922528099144
0.00963651476511867
0.0103005035982244
0.0109464721019797
0.0115363946521235
0.012037876255867
0.0123962038853354
0.0126463466827177
0.0128500759829787
0.0130578335711066
0.013318293872063
0.013713646917955
0.0143731456136102
0.015261368800657
0.0164011844659384
0.0178617340659137
0.0195701675707849
0.0210656573473825
0.0206364995041835
0.0185212805021232
0.0161880043464121
0.0153291047608741
0.0180071719341866
0.0170735911398757
0.014499143668826
0.0102647057256644
0.00417901263680748
0.00100328130629034
0.000421854812696658
0.000231137170862855
0.000203933048289447
0.000184440262238971
0.00017869067954758
0.000192082424655985
0.000226993808464909
0.000285896129737709
0.000379038665230181
0.000513664385613931
0.000690778298264314
0.000902197706232386
0.00113983532501298
0.00139337798184897
0.00165213838043206
0.00191013540878713
0.00216955593821444
0.00242888033500048
0.00268449868384908
0.0029444205146967
0.00323996816767666
0.00364178258575395
0.0042568702439752
0.00493011650642812
0.00552775688560975
0.00607519242790742
0.0065843167108352
0.00706116399284798
0.00751080209371008
0.00793646589263899
0.00834047545677841
0.00872446114276642
0.00908959198134667
0.00943671199007902
0.00976635912178216
0.0100785534624933
0.0103729543550927
0.0106493387141796
0.0109076387404086
0.011148002763121
0.0113706496549469
0.0115757867531355
0.0117636714131959
0.0119345918891797
0.0120888699598891
0.012226862237967
0.0123489608550968
0.0124555924677938
0.0125472148479882
0.0126243104921262
0.0126873777169536
0.0127369206246401
0.0127734412376295
0.0127974415475448
0.0128094334292908
0.0128099603257486
0.0127995939667795
0.012778922511514
0.0127485248308043
0.0127089529284216
0.0126607026884759
0.0126042072032259
0.0125398213415263
0.0124678584345639
0.0123886257906675
0.012302447438213
0.0122096452470267
0.0121105118325334
0.0120052657931891
0.0118940380598989
0.0117768884571864
0.0116538216148431
0.0115247855719925
0.0113896398999994
0.0112481160151148
0.0110997371904258
0.0109438111057205
0.0107792902018639
0.0106048065878118
0.0104182737726307
0.0102170897497981
0.00999697670353251
0.00975274813456237
0.00947536988277707
0.00915540672276858
0.00874536711384405
0.00841805992663631
0.0084713533055635
0.00876613731397213
0.00920953137363842
0.00973834339730444
0.0103409280290251
0.0110210142147159
0.0117785049538981
0.0125633827265813
0.0133310141245512
0.014039657037258
0.0146538333180888
0.0151228551601888
0.0154796138088499
0.0157879607432439
0.0161033346381849
0.0164786748297147
0.0170000451728415
0.0177973302542408
0.0188460390675186
0.0201615102752591
0.021794442418165
0.0236735882350236
0.0253680994862837
0.0252035581397962
0.023064099945733
0.0201619001418475
0.0186133654596434
0.0206657988260942
0.0196178986508739
0.0170288887761712
0.0128555726227729
0.0065050269695187
0.001935701044023
0.000736213416502229
0.000397236738856291
0.000349638065788793
0.000319367937325354
0.000309150952203027
0.000329007133056373
0.000381763807930775
0.000468822649616038
0.000600424050084547
0.000780602602174434
0.00100483361944999
0.00125987615491706
0.0015357582848665
0.00182257607801291
0.00211212050557452
0.00240181089640454
0.00269608689863336
0.00299542104498255
0.00329960397490826
0.00362164302029773
0.00399887562092819
0.00450177156728595
0.0052110187505556
0.00595943085115896
0.0066250997228353
0.00723634519231941
0.00780516522321897
0.00833819894681331
0.0088407755286793
0.00931637369223453
0.00976749233498921
0.010195896388819
0.0106028408577912
0.0109891835979592
0.0113553967044595
0.0117014773716212
0.0120273005102376
0.0123328489677406
0.0126182154217964
0.0128836135419969
0.0131292825431571
0.0133554844805173
0.0135625256027112
0.0137507452891369
0.0139205174581957
0.0140722518640633
0.0142063948356495
0.0143234283319589
0.0144238666238038
0.0145082500295441
0.0145771360978426
0.0146310893172951
0.014670672522491
0.0146964474005937
0.0147089837102674
0.0147088811144593
0.0146967678927068
0.0146732885680243
0.0146390781449281
0.014594743036367
0.0145408320838745
0.0144778276608488
0.0144061298118247
0.0143260900706332
0.0142380498643386
0.0141423654800807
0.014039391548154
0.0139294528730265
0.0138127983629967
0.0136895844006496
0.0135598902761875
0.0134237370231094
0.0132810859152159
0.013131811145014
0.0129756534566345
0.0128121506121847
0.0126406119049203
0.0124600068244306
0.0122689621788139
0.0120654293488905
0.0118467953955465
0.0116088680949469
0.0113464384173994
0.0110504439675596
0.0107098736931116
0.0102801802471737
0.0099294316643057
0.00995962017757063
0.0102632392619926
0.0107394267515468
0.0113217079909532
0.0119921791626774
0.0127514250815842
0.0135948494734466
0.0144710785174778
0.0153304437354504
0.0161285131049617
0.0168282727669799
0.0173837657428998
0.0178264880943078
0.0182205986198223
0.0186242333001775
0.019093078755976
0.0197150783001817
0.0206183417768656
0.0217887283530038
0.023237854065669
0.0250016372134879
0.027006285359768
0.0288361664955488
0.0288817721358396
0.026858490778494
0.0237389345977064
0.021662614508845
0.0231471644875448
0.0219357527743487
0.0193255641879861
0.0151266470601161
0.00884501114554324
0.00320364593879759
0.00114895778938966
0.000594778966564723
0.000519152571486703
0.000479328540937699
0.000463795445445148
0.000488455544172793
0.000556734148143197
0.000668319525641261
0.000831841991748457
0.00104755675385546
0.00130632461600938
0.00159228349865905
0.00189551406213335
0.00220775243148665
0.00252346480487095
0.00284274159736509
0.00317151155472147
0.00351191575022424
0.00386671560271023
0.00425267585580266
0.00470981419322145
0.00530331730076655
0.00608976120754378
0.00689919351767144
0.00762239892301162
0.00828847569716199
0.00890913692843127
0.00949130368354727
0.0100403693610574
0.0105599376395369
0.0110526028676137
0.0115202080446751
0.01196405353835
0.0123850004770339
0.0127834836529353
0.0131595905198063
0.0135133546151091
0.0138448899502195
0.0141543799824194
0.0144420756938594
0.0147082443554258
0.0149531932022271
0.0151772716585028
0.0153808643707585
0.0155643916425796
0.0157283106185453
0.0158731160338017
0.0159993393264136
0.0161075454571658
0.0161983268510568
0.0162722947719568
0.0163300688649602
0.0163722677754606
0.0163995079438022
0.0164124116680955
0.0164116291450132
0.0163978392653744
0.0163717371521075
0.0163340084369811
0.0162853091527798
0.016226236963065
0.0161573204583347
0.0160790023075998
0.0159916699659612
0.0158956964252173
0.015791467661421
0.0156793686314361
0.0155597546243307
0.0154329041150294
0.0152989992000979
0.0151581399190004
0.0150103656649902
0.0148556544298559
0.0146938992756095
0.0145248586443263
0.0143480936958186
0.0141629319531916
0.0139683767496085
0.0137630809625769
0.0135450640739916
0.0133117606836413
0.0130591222503866
0.0127820261513598
0.0124715565856677
0.0121159222896175
0.0116737114466034
0.0113061487446791
0.0113143760724519
0.0116202383603506
0.0121194682850702
0.0127429488315325
0.0134673654747098
0.0142897798578656
0.0152013689377674
0.0161495203807955
0.0170807236578682
0.0179485915627486
0.0187156421954005
0.0193408078428567
0.0198547933602711
0.0203211755410045
0.0207993581850121
0.0213467831273559
0.0220522041384951
0.0230409561083602
0.0243076445989089
0.0258619547404491
0.0277277594776393
0.0298257880723574
0.0317466589656949
0.0319402306131554
0.0300509325519075
0.0268997472050129
0.0244940102662231
0.0254658881756835
0.0240890100557188
0.0214682461177616
0.0172049837576886
0.0110851136325593
0.00475013244014193
0.00168030896434417
0.000812427636406334
0.000694396686901746
0.00064792177111988
0.000627712715336391
0.000655734899741268
0.000737019751181299
0.000869669413566919
0.00105987452712388
0.00130408688890675
0.00158954318303215
0.00189939928724098
0.00222473968592809
0.00255923371634744
0.00289970714280379
0.00324831590806204
0.0036120952669686
0.00399461254421511
0.00440103355163469
0.00485052280868885
0.00538319659884411
0.00605693502639063
0.00690859497855955
0.00777058953917328
0.00854496985667959
0.00926033917118398
0.00992795822673037
0.0105548357610366
0.0111463235958565
0.0117060834392063
0.0122367585611739
0.012740239854167
0.0132178548332824
0.0136704736991373
0.0140985423281292
0.0145022538512828
0.0148817593726179
0.0152372602965759
0.0155689962382991
0.0158772455305137
0.0161623060090408
0.0164245245488155
0.0166642904109574
0.0168820300543793
0.0170782067591786
0.0172533216276269
0.0174079143204234
0.0175425622344364
0.0176578774927163
0.01775450114377
0.0178330948027591
0.0178943300955011
0.0179388784628988
0.0179674081177312
0.0179805906010554
0.0179791230846058
0.0179637313363118
0.01793515747696
0.0178941343361137
0.0178413646294642
0.017777492343821
0.0177030905402169
0.0176186430731448
0.0175245720293673
0.0174212804696314
0.01730918258891
0.0171886923250427
0.0170601946489611
0.0169239974411721
0.0167803090134637
0.0166292513822213
0.016470884041175
0.0163052045633044
0.0161321285871106
0.0159514384358931
0.0157627255378784
0.0155653478447852
0.0153583548002658
0.0151404478011195
0.0149097354664715
0.0146637407050385
0.0143985959394899
0.0141093378946013
0.0137873041569642
0.0134204398936264
0.0129704317891651
0.0125908649100471
0.0125791251555529
0.0128832085655893
0.0133987849359999
0.0140548232744499
0.0148233122037722
0.0156976083201391
0.0166648483821005
0.0176711438391802
0.0186599753383993
0.0195836170680494
0.0204049475501839
0.0210877706762135
0.0216624007933817
0.022191308392458
0.0227342124669012
0.0233495794690865
0.0241262459044366
0.0251862782140968
0.0265314627672721
0.0281702480200743
0.0301164997910435
0.0322839364047407
0.0342648398850033
0.0345557267534573
0.0327829624906353
0.0296798292746811
0.0270863604349378
0.0276220932407669
0.026099620757668
0.0234799350744232
0.0191836742561104
0.0132034033392363
0.00653069936718624
0.00235962087019474
0.00105484502784139
0.000866461891400823
0.000815591147962394
0.000792720090300216
0.000823696864844844
0.00091642803689514
0.00106775213934795
0.00128091569897393
0.00154876237439633
0.00185591136010539
0.00218563534813606
0.00253042980028895
0.0028858379571794
0.00325068399191639
0.00362877727169674
0.00402804396693183
0.00445323100707582
0.00491129515646748
0.00542259926945683
0.00602568903218716
0.00677085293100453
0.00767944628804039
0.00858874077246619
0.00941023394974743
0.0101713244367532
0.0108827443515317
0.0115514615709451
0.0121827239826482
0.0127802088371232
0.013346580003541
0.0138837596996445
0.0143930969623824
0.0148754812048388
0.0153314012855641
0.0157611465052528
0.0161649572307711
0.0165430963814181
0.0168958421780907
0.0172234968945775
0.0175263893747143
0.0178049029017136
0.0180594646412945
0.0182905408741985
0.0184986358932171
0.0186842927675875
0.0188480940483714
0.018990661015676
0.019112650857923
0.0192147511621485
0.0192976718791441
0.0193621347322344
0.0194088622057393
0.019438572565042
0.0194519846109409
0.0194498402827081
0.0194329098825139
0.019401980280165
0.0193578293624097
0.0193012047293255
0.0192327951994504
0.0191532173759739
0.0190629955689035
0.0189625858341711
0.0188524204704253
0.0187329411063078
0.0186045899942589
0.0184677815467399
0.0183228532595893
0.0181700403163699
0.0180094879049276
0.017841277241843
0.0176654280706265
0.017481881744858
0.0172904495791862
0.0170907589086915
0.0168822075998253
0.0166639009107937
0.0164346057207281
0.0161925356346865
0.0159353316946861
0.0156593328883322
0.0153597861476628
0.0150283514490096
0.0146530458218442
0.0141985076490346
0.0138105588631113
0.0137811067418075
0.014080926761141
0.0146080102127206
0.0152901579619256
0.0160952786808689
0.017012958455155
0.0180264283477975
0.0190804415100404
0.0201161010769838
0.0210849075843382
0.0219507864296125
0.0226823170657842
0.0233096336659564
0.0238937321462076
0.0244939662254942
0.0251692409245678
0.0260078978311191
0.0271284594038468
0.0285385789531607
0.0302456779921411
0.0322553208682677
0.0344739079402671
0.0364929553755796
0.0368424483180094
0.0351607695355742
0.0321357499320604
0.0294443038704356
0.0296207489783155
0.0279788712114517
0.0253699681773012
0.0211015936696736
0.0152196264658794
0.00844687445292019
0.00321600460448494
0.00134267196445866
0.00103565881092375
0.000979231665593672
0.000956257026670414
0.000990453906230114
0.0010936100700665
0.0012617024803915
0.00149484594594039
0.0017827156061214
0.00210822596799992
0.00245539375529807
0.00281821387576257
0.00319393396949955
0.00358307380452877
0.00399081393644928
0.00442582102513772
0.00489376698768526
0.00540281792145384
0.00597359110819234
0.00664211012642435
0.00745157227697831
0.00841129992309343
0.00936450105136841
0.0102304369868501
0.0110349064741062
0.0117880685176174
0.0124967556075786
0.0131660704756086
0.0137996753859989
0.0144002359541639
0.0149696962405513
0.0155094275044768
0.016020346296201
0.0165030018542949
0.0169577655412356
0.0173849476667911
0.0177848573192176
0.0181578024489671
0.0185041083392811
0.0188241346079884
0.0191182991770641
0.0193870661435705
0.0196309406297398
0.0198504669811223
0.0200462292502476
0.0202188518549631
0.0203689988934936
0.0204973715206967
0.0206047027484769
0.0206917497818045
0.0207592834563243
0.0208080764336839
0.0208388962046263
0.0208525077696027
0.0208496965679581
0.0208312760555885
0.0207980765314199
0.0207509196728499
0.0206905969291826
0.0206178411326998
0.0205333120561841
0.0204375742275416
0.0203311174398084
0.020214402850605
0.0200878992022263
0.0199520768588991
0.0198073798205739
0.01965417566807
0.0194927272206691
0.0193232040309929
0.0191457105797062
0.0189602911203969
0.0187669155910682
0.0185654286747027
0.0183554984698351
0.0181365704360232
0.0179078136920334
0.0176680738858083
0.0174156821252514
0.0171484200031199
0.0168628512458665
0.0165544689518948
0.0162153010256133
0.0158336533383569
0.0153769160022334
0.014983378639523
0.014938465886704
0.0152325107609815
0.0157674724109075
0.0164706932208838
0.017306548037641
0.0182608607498343
0.0193130608571694
0.0204064616079553
0.0214803075306375
0.0224858697563725
0.0233887082364616
0.0241620290908704
0.0248358374817182
0.0254693513031421
0.0261210397489614
0.0268497447928503
0.027742811756494
0.0289150488100981
0.0303789356089447
0.0321408162645072
0.034199884427158
0.0364558098421585
0.0384975807230034
0.0388759811179307
0.0372603434629909
0.0343207684933949
0.0315869233142778
0.0314710776878778
0.0297354024011861
0.027146145335498
0.0229669016594149
0.0171440781148265
0.0104235383946432
0.00428793932396063
0.00170792520005286
0.00120878073653342
0.00113914553804484
0.00111828317191695
0.001156196421525
0.0012688584489776
0.00145191697721198
0.00170247710300656
0.00200759994346291
0.0023491825291401
0.00271226585511823
0.00309228585900499
0.00348801427692054
0.00390142820656279
0.00433887397508766
0.00480963461753687
0.00532006021956001
0.00587901994179425
0.00650670008605323
0.00723613831958507
0.00810422583297322
0.00911096655698608
0.0101058428917174
0.0110144569797274
0.011860786752625
0.0126543816072251
0.0134018619788776
0.0141081541841608
0.0147768806901329
0.0154106948867142
0.016011556551278
0.0165808609763203
0.0171195603879326
0.0176282682002191
0.0181074263489038
0.0185574019643686
0.0189785413196206
0.0193711778099085
0.0197356597835658
0.0200723773399663
0.020381782279364
0.0206643753863381
0.0209207004113743
0.0211513415578571
0.0213569236466104
0.0215381127103947
0.021695615369147
0.0218301764008535
0.0219425738594785
0.022033611821913
0.0221041099230883
0.0221548908047738
0.0221867710357186
0.0222005614520967
0.0221970904274699
0.0221772139058005
0.0221418049802623
0.0220917284866141
0.0220278192337247
0.0219508537272859
0.0218615349402261
0.0217604677454407
0.0216481757549716
0.0215251489328962
0.0213918831532491
0.0212488770284628
0.0210966045782542
0.0209354641334083
0.0207657470086942
0.0205876483043989
0.0204012972094921
0.0202067646958088
0.0200040519771656
0.0197930409631914
0.0195734448334112
0.0193447630333397
0.0191062354059366
0.0188567970276221
0.018594906658565
0.0183185035083738
0.0180243890299303
0.0177083277098562
0.0173627450267851
0.0169763733330647
0.0165191327993532
0.0161221947917079
0.0160639502406778
0.0163513434314878
0.0168913834342515
0.0176115942354078
0.018473307519669
0.0194586423024665
0.0205433139526529
0.0216691352856527
0.0227739533438272
0.0238093491665463
0.0247430252381777
0.0255526157447348
0.026267916684773
0.026946088305241
0.0276442944673731
0.0284208631627447
0.0293616833952562
0.0305777340437625
0.0320854221113372
0.0338901718879262
0.0359868972787826
0.0382704055792656
0.0403242663340313
0.0407080114431432
0.0391361650115272
0.0362790196105559
0.0335370308078108
0.0331840940593834
0.0313772080308577
0.0288164905338354
0.0247710711322931
0.0189778938528848
0.0123996299092937
0.00560794419515138
0.0021798179969942
0.00139811552186651
0.00129740042126718
0.00127958858886446
0.0013216869384625
0.00144287101189098
0.00163910556006985
0.00190483407885641
0.00222504197986296
0.00258106447461719
0.00295904004810246
0.00335573185489841
0.003771272010796
0.00420890603273755
0.0046759861193218
0.00518230178314714
0.00573465734295481
0.0063422107103758
0.00702425188063912
0.00781067606217206
0.00873289714201806
0.00978368860408404
0.0108187711421633
0.0117689239828051
0.012656179703911
0.0134894398149708
0.0142750450973614
0.0150177182356408
0.0157210194694461
0.016387578275583
0.0170193653802573
0.0176178019107251
0.0181838813426719
0.0187182795981883
0.0192215001596905
0.0196939581452109
0.0201360319665986