/*--------------------------------*- C++ -*----------------------------------*\
| =========                 |                                                 |
| \\      /  F ield         | OpenFOAM: The Open Source CFD Toolbox           |
|  \\    /   O peration     | Version:  2.4.0                                 |
|   \\  /    A nd           | Web:      www.OpenFOAM.org                      |
|    \\/     M anipulation  |                                                 |
\*---------------------------------------------------------------------------*/
FoamFile
{
    version     2.0;
    format      ascii;
    class       volScalarField;
    location    "18000";
    object      nut;
}
// * * * * * * * * * * * * * * * * * * * * * * * * * * * * * * * * * * * * * //

dimensions      [0 2 -1 0 0 0 0];

internalField   nonuniform List<scalar> 
15600
(
8.3633467417743e-08
1.04930340757999e-07
4.04055357004695e-08
5.76383573002224e-09
1.4567105967024e-08
7.24677312785606e-09
2.83448015682903e-09
1.63474125475829e-09
1.00245584595275e-09
7.13502759990949e-10
5.23273879718155e-10
4.75541489585568e-10
4.94544282805164e-10
6.21081601786173e-10
9.31095411963876e-10
1.55107587804172e-09
2.58191210435828e-09
4.06462602453423e-09
6.05166656747155e-09
8.41741293091404e-09
1.08203388863821e-08
1.30926721629097e-08
1.53190482665458e-08
1.7115597045909e-08
1.80738556740857e-08
1.82206107444984e-08
1.63859222717332e-08
1.95073047698146e-08
3.90112664993269e-08
6.79791370787278e-08
9.59500661179616e-08
1.23747734648904e-07
1.4975763341893e-07
1.74104346456418e-07
1.96553925104473e-07
2.17191225341227e-07
2.35985132089188e-07
2.5296658512345e-07
2.68131014234233e-07
2.81490268669029e-07
2.93055253166885e-07
3.02856780100656e-07
3.10937316359496e-07
3.17324629169795e-07
3.219558350692e-07
3.24769079201526e-07
3.25937999994543e-07
3.2554506746017e-07
3.23692122688009e-07
3.20489677248206e-07
3.16055375279424e-07
3.10511832051389e-07
3.03984502082009e-07
2.96599617841105e-07
2.88482120217877e-07
2.79753651240962e-07
2.70530787660921e-07
2.60923505040159e-07
2.51034392812226e-07
2.40958432545658e-07
2.30783438738149e-07
2.20590830169356e-07
2.10454339961061e-07
2.00439337052e-07
1.90601752944995e-07
1.80988116517701e-07
1.71635261515427e-07
1.62571765802921e-07
1.53818342347359e-07
1.45391079633574e-07
1.37302239653562e-07
1.29560921070218e-07
1.22172110828808e-07
1.15136722098116e-07
1.08451070061438e-07
1.02108309588839e-07
9.60994483377008e-08
9.04143258020874e-08
8.50413764969983e-08
7.99680566516773e-08
7.51798487553924e-08
7.06614418150069e-08
6.63959352743592e-08
6.23665317096597e-08
5.85553868204279e-08
5.4943506046468e-08
5.15141351339907e-08
4.82398524417223e-08
4.51115066442402e-08
4.21052257867408e-08
3.93405889821352e-08
3.6176940868796e-08
3.60669150404864e-08
3.83965665644399e-08
3.88701066312924e-08
3.85862434434182e-08
3.6225815251936e-08
3.28265896257938e-08
2.97449313379873e-08
3.37594062423431e-08
3.9523254503704e-08
4.69684620568755e-08
5.59358897332283e-08
6.63313075399462e-08
7.5951894748582e-08
8.33999217327757e-08
8.98557804286461e-08
9.62471034044867e-08
1.03891996335587e-07
1.15123719638774e-07
1.37567311114187e-07
1.77327092179045e-07
2.37873216563805e-07
3.43700171696037e-07
5.17043930068716e-07
7.70395235723629e-07
7.32884154765247e-07
3.72793149060684e-07
1.17793447185402e-07
6.44692393163977e-08
2.92889301577996e-06
2.49076353888211e-06
1.25589590652614e-06
4.15306146902775e-07
6.86591105670228e-08
1.79547736099039e-08
9.30484982673963e-09
5.29854233500116e-09
4.60351613123074e-09
4.25445354912274e-09
4.40759217742444e-09
5.23817558946353e-09
6.88916007488513e-09
9.75420513863355e-09
1.48030143613882e-08
2.34399480749897e-08
3.75940738498571e-08
5.97343181917194e-08
9.3430708093959e-08
1.42928338663151e-07
2.12494559013687e-07
3.05597814546784e-07
4.25574577825567e-07
5.70908007870157e-07
7.28671424342157e-07
8.81262290526161e-07
1.00518750174955e-06
1.08417250809845e-06
1.40823762242535e-06
1.96364575750087e-06
2.51788725733166e-06
3.06424416867822e-06
3.60364157436733e-06
4.13518567010501e-06
4.65869436140338e-06
5.17453736908501e-06
5.68215974713041e-06
6.1811314033097e-06
6.67064192363871e-06
7.15006024996986e-06
7.61902970748616e-06
8.07802566382703e-06
8.52798122861457e-06
8.96687112972011e-06
9.38581450061548e-06
9.77667233408134e-06
1.01436584153649e-05
1.04851872625941e-05
1.08003963340607e-05
1.10886213151008e-05
1.13494159975785e-05
1.15825515586781e-05
1.17880116055477e-05
1.19659836998838e-05
1.21168432479617e-05
1.22411267429533e-05
1.23394959920257e-05
1.24127021209418e-05
1.24615489686704e-05
1.2486909224225e-05
1.24897271398534e-05
1.24711102491778e-05
1.24322808649378e-05
1.23745646555874e-05
1.22992779762466e-05
1.22077151707004e-05
1.21010074977855e-05
1.1980166495436e-05
1.18459833779623e-05
1.16992027528807e-05
1.15405807441085e-05
1.13709622920836e-05
1.11911792392207e-05
1.10019998166669e-05
1.0803994348754e-05
1.05975283337517e-05
1.03828448183814e-05
1.01600656602549e-05
9.92925117741516e-06
9.69019018420591e-06
9.44252271704681e-06
9.18521438479273e-06
8.91714015558502e-06
8.63591381991977e-06
8.3393365159811e-06
8.02260486326102e-06
7.68175848154284e-06
7.30744288062183e-06
6.89242808068844e-06
6.42373369187239e-06
5.90859523408064e-06
5.2330702473673e-06
4.80170523782297e-06
5.07315838249238e-06
5.33180654299167e-06
5.58029206432059e-06
5.6703803548252e-06
5.66196918455538e-06
5.57954431686519e-06
5.50125676626916e-06
5.38579156837107e-06
5.2413204229508e-06
5.04689587862122e-06
4.80370131649582e-06
4.45290597400329e-06
4.04625055762239e-06
3.6343355742717e-06
3.24645066229451e-06
2.90725671898446e-06
2.64829023001221e-06
2.53566717667921e-06
2.55796532001389e-06
2.75693028862117e-06
3.25606959731641e-06
4.11873896925243e-06
5.10025825900653e-06
4.57205426671612e-06
3.44735363822234e-06
2.63084750794689e-06
2.81923337832075e-06
4.02286596694736e-05
3.67602313519293e-05
2.39879834445215e-05
9.48630684269865e-06
1.41178186489072e-06
2.85964296711579e-07
1.59093353985848e-07
8.96821313423018e-08
8.48853922713558e-08
8.2441021615548e-08
8.90083258586395e-08
1.07802168089992e-07
1.43745241239129e-07
2.04750106658874e-07
3.1069223668692e-07
4.90224535378801e-07
7.83086771099261e-07
1.24153449002558e-06
1.93842031049182e-06
2.95786369072177e-06
4.3782630196741e-06
6.25637044030573e-06
8.61264279635035e-06
1.13417620713091e-05
1.41598459228364e-05
1.67680219871883e-05
1.89473977782021e-05
2.18250136609568e-05
2.82179579409986e-05
3.67695885706031e-05
4.46353850594401e-05
5.19979292804556e-05
5.89930332022293e-05
6.56660220948452e-05
7.20684921687908e-05
7.82302532592084e-05
8.41711100189504e-05
8.99039203321794e-05
9.54368905075758e-05
0.000100776872735323
0.000105931861040659
0.000110915231621272
0.000115757119119983
0.00012057462119505
0.000125242238259418
0.000129613575974841
0.000133721157052914
0.000137556187521084
0.000141115668873465
0.000144397526256275
0.000147400888863634
0.000150126129501632
0.000152574882629704
0.000154750034894611
0.000156655650527082
0.000158296801501797
0.000159679313326019
0.000160809490972351
0.000161693843682265
0.000162339252421003
0.000162753095723971
0.000162944137033774
0.000162922206173631
0.000162698112816547
0.000162282706001568
0.000161686722087072
0.000160919552876424
0.000159989537855584
0.000158903046400041
0.000157665999541988
0.000156284508378811
0.000154765614845964
0.000153116405145467
0.00015134348541902
0.00014945164854911
0.00014744369842563
0.000145321156636149
0.000143084293888576
0.000140732566839286
0.000138262639582229
0.000135669145299188
0.000132939626880192
0.000130059364044531
0.000127000035260386
0.000123732384424397
0.000120198222213354
0.000116342019199772
0.000112045390138496
0.000107198676813304
0.000101648395081218
9.57686837731488e-05
8.78347607000217e-05
8.22047117176138e-05
8.44316312880514e-05
8.78490203197088e-05
9.09968529677885e-05
9.2204058242221e-05
9.21271415674548e-05
9.11046081992179e-05
8.99705761593183e-05
8.82959547519958e-05
8.61240917231668e-05
8.3195252238383e-05
7.94809692791279e-05
7.42561337159095e-05
6.81506835775386e-05
6.18340147295019e-05
5.57271293489661e-05
5.02006829269263e-05
4.57624653526727e-05
4.33349939353524e-05
4.26491236317055e-05
4.41754583616047e-05
4.90464112543002e-05
5.73068102904754e-05
6.49326138738373e-05
6.01896372381871e-05
4.98504687768436e-05
4.09997117033941e-05
3.9549965726948e-05
0.000135816424300919
0.000131831182228187
9.63662007012086e-05
4.91562690217613e-05
1.15428824584262e-05
2.52487115766591e-06
1.3337096370157e-06
7.43651464726428e-07
6.97767953702219e-07
6.78260495757648e-07
7.28440242027615e-07
8.74177916181786e-07
1.15512993211504e-06
1.62583472902783e-06
2.43012458232149e-06
3.76831795790156e-06
5.90908227382511e-06
9.17539433224557e-06
1.39764274757598e-05
2.06955365867003e-05
2.95187627251249e-05
4.03250930252249e-05
5.27399273323776e-05
6.57807418041617e-05
7.78099687600151e-05
8.75302929712984e-05
9.55114264311083e-05
0.000107377169195899
0.000133347576632727
0.000165440980105683
0.000193749036163178
0.00021948078056331
0.000243283342205377
0.000265472151773705
0.000286337037384241
0.000306062926403276
0.00032478339525685
0.00034259391871655
0.000359564594758583
0.000375752281120956
0.000391214172077509
0.000406051500912032
0.00042059775187114
0.000434654295182032
0.000448002733129962
0.000460463740370387
0.000472103027100339
0.000482916579285153
0.000492911753338088
0.000502096775472856
0.000510481583318684
0.000518077987699679
0.000524899804878857
0.000530962910462773
0.000536285128420559
0.000540885880022249
0.000544785615631042
0.000548005155461385
0.000550565038616784
0.000552485888456816
0.000553788881600508
0.000554498015200247
0.000554639551970664
0.000554241783340647
0.000553332872770854
0.000551940377157037
0.000550088387317784
0.000547798031551282
0.000545085282594209
0.000541964525244572
0.000538450404766876
0.000534559715998822
0.000530309415987206
0.000525715259222192
0.000520788436336405
0.000515534977528995
0.000509957377879813
0.000504054860160093
0.000497824130153992
0.000491254900320517
0.000484330658445147
0.000477017075745592
0.000469271359522944
0.000461016513751064
0.000452166869840879
0.000442563662648785
0.000432040999768397
0.000420269088740129
0.000406910456183694
0.000391442485323764
0.000374857705965376
0.000352272551537172
0.000335612911372919
0.00034126087567825
0.000351671728008664
0.000361052627826085
0.00036521162171604
0.000365617186296459
0.000363373593901259
0.000360609823527251
0.000356095558650084
0.000349726616771384
0.000340738019802559
0.000328893640570674
0.000311998767664959
0.000291792865555443
0.000270374062327206
0.000249114019817439
0.000229278215257236
0.00021286643037057
0.000203452807642605
0.000200246242659311
0.000204781713837129
0.000220712181815634
0.000247682806606135
0.000271847167998679
0.000248164390323702
0.000196703522405397
0.000147840554782128
0.000133224652825669
0.000281593734567039
0.000276659095900616
0.000206338120248078
0.000112057970192456
4.27739257614301e-05
1.31478318377515e-05
6.64262050250521e-06
3.64032832768195e-06
3.36507405300194e-06
3.2629249711999e-06
3.46679751154478e-06
4.09547647144846e-06
5.30751221717952e-06
7.28702027484054e-06
1.05636709050036e-05
1.58214443564972e-05
2.38920114961438e-05
3.5561972129188e-05
5.16252919184824e-05
7.24284293328904e-05
9.74385282682485e-05
0.00012533421208558
0.000154633376686477
0.000182785625975922
0.000206474554683434
0.000224453562424141
0.00024089258855104
0.000268608728185073
0.000327322432207066
0.00039643546160451
0.000455301468860554
0.000507562847587279
0.000554927762037518
0.000598352927338655
0.000638618283499797
0.000676232070967407
0.000711560687141799
0.000744868769342526
0.000776354692676921
0.00080618433713603
0.000834545879416618
0.000861840352142715
0.000888100888499834
0.000913080516143981
0.000936562689545539
0.000958422747457576
0.000978751542838928
0.000997563981800667
0.00101488840589198
0.00103075291652908
0.00104518690350622
0.00105822146116107
0.00106988977070888
0.00108022732166522
0.00108927184190685
0.00109706281419934
0.0011036406146436
0.00110904543790803
0.00111331626290897
0.00111649135914268
0.00111860928447518
0.00111971264388819
0.00111984750653533
0.00111906290917451
0.00111740752043403
0.00111492860121632
0.0011116675678986
0.00110766041777129
0.00110293430503047
0.00109751309016515
0.00109142079372253
0.00108468473594862
0.00107733256453963
0.00106938985492617
0.00106087451916862
0.00105179562390302
0.00104215590048351
0.00103195250427781
0.00102117776840121
0.00100981259394801
0.00099782606182642
0.00098515821361007
0.000971731284780386
0.000957412584278308
0.00094204684502206
0.000925361139975449
0.000907053283149135
0.000886553837432707
0.000863245334033899
0.000836106069845273
0.000806255524140365
0.000765659543493228
0.000735195663734065
0.000744943653837048
0.00076486361401757
0.000783095791165611
0.000792924388446811
0.000796198587164223
0.000795026838979716
0.000792747297461363
0.000787118098239237
0.000777540246581623
0.000762670582075086
0.000741901448628261
0.000711363759579228
0.000674001545856626
0.000633809104272736
0.000593436577265997
0.000555311028077602
0.000523665158811334
0.00050609357494422
0.000501499955160061
0.000512655005868422
0.000546431493565463
0.000601997342514302
0.000652592922463912
0.000602226574831183
0.000480190929619208
0.000343854985741675
0.000287545377483515
0.000489123670681927
0.000474142781023195
0.000356766033169208
0.000192796305162739
9.15420712137946e-05
4.42147067730395e-05
2.36863240200117e-05
1.27071975150379e-05
1.15105965958675e-05
1.10949403922622e-05
1.1586930121215e-05
1.3356011466708e-05
1.67759860690602e-05
2.21985575418694e-05
3.08618338221999e-05
4.42176771716051e-05
6.37765100840412e-05
9.04593946058128e-05
0.000124837137210251
0.000166268016648548
0.000212552770412132
0.000260773337139512
0.000308502383460353
0.000352013941447372
0.000387419013427148
0.000415396794290757
0.000445162865328356
0.00049660369895843
0.000595966250249324
0.000707489860274775
0.000800713835176679
0.000882673018649153
0.00095633680672879
0.00102341362204619
0.00108524578941069
0.00114270778350052
0.00119643345064495
0.00124688271736831
0.00129440827663572
0.00133932229608547
0.00138200633982427
0.0014227923854941
0.0014616122867675
0.00149824240131178
0.00153251440978838
0.00156437441977963
0.00159393166566186
0.00162122540247978
0.00164630791389614
0.00166923012736777
0.00169004365361423
0.0017088014854299
0.00172555865887076
0.00174037265931926
0.00175330340337324
0.00176441262964519
0.00177376274820417
0.00178141533572888
0.00178742972187008
0.0017918635654575
0.00179477445986618
0.00179622514695234
0.00179628308375101
0.00179501959371546
0.00179250542761991
0.00178880896983876
0.00178399034765789
0.00177810151835922
0.0017711817497375
0.00176326493229015
0.00175438487976822
0.00174457973056905
0.00173388815569758
0.00172234578702153
0.00170997735877735
0.00169679480196187
0.00168280054701724
0.00166798896689275
0.00165234687009355
0.00163584514271036
0.00161843623836757
0.00160003238749695
0.00158051659569636
0.00155969690502216
0.00153734011142542
0.00151305353994928
0.00148638255898356
0.0014565083662569
0.00142250306223452
0.00138279484871141
0.0013379966708419
0.00127726834046969
0.00123100974427178
0.00124456580262675
0.00127578378036474
0.00130536752270909
0.00132389527815997
0.00133307492966404
0.00133606135363081
0.00133718810678817
0.00133312709021081
0.00132244325481738
0.00130320094516407
0.00127433843743599
0.00123045454155213
0.00117564511070547
0.00111607741597084
0.00105594617584471
0.000998990458907257
0.000952035522440579
0.000927207444824939
0.000923496848613989
0.000944622795619892
0.00100019397975001
0.00108887561324028
0.0011706704992291
0.0010946860841504
0.000894057888718278
0.000648362881770744
0.000522304295205484
0.000766904277100607
0.00072974521439955
0.000559477810998294
0.000292199333034711
0.000145479303425988
9.74059478695921e-05
6.44977515160641e-05
3.46837380145508e-05
3.05970859995829e-05
2.92033696152441e-05
2.9799580747194e-05
3.32667144379971e-05
4.0217968626818e-05
5.11241655818421e-05
6.82277074639437e-05
9.38728771435443e-05
0.000129939088282304
0.000176651243826583
0.000233494970129651
0.000298177525791022
0.0003667387621443
0.000435146279515208
0.000500631651134175
0.000559086560935968
0.000607241835546603
0.000648640040062346
0.000697287333062485
0.000778596294733977
0.000921537525590194
0.00107621360551745
0.00120492465004728
0.00131793806483292
0.0014193209251835
0.00151146021775693
0.00159622598394512
0.00167484108361753
0.00174820308676125
0.00181696890103925
0.00188165335930374
0.00194271364786608
0.00200064876836082
0.00205566634356707
0.00210770589624378
0.00215659538605993
0.00220223104243292
0.00224462394071429
0.00228390050400976
0.00232012734961457
0.00235338232540462
0.00238374097275763
0.00241127884901049
0.00243607250862936
0.00245820043814908
0.00247774364093422
0.00249478566837117
0.00250941189062366
0.00252170807441942
0.00253175846520213
0.00253964401485328
0.00254544296906945
0.00254923307897575
0.00255109819154658
0.00255112810874285
0.00254941733916614
0.00254605963181764
0.00254114530940287
0.00253475405169659
0.00252695446803242
0.00251779861417423
0.00250733081126022
0.00249559491831644
0.00248263998831836
0.00246851581985918
0.00245326813511997
0.00243692849008474
0.00241951152644362
0.00240101896304076
0.00238144183400342
0.0023607605596271
0.00233893510783432
0.00231589964421519
0.00229153737671392
0.00226568906975174
0.00223810151515478
0.00220845804781539
0.00217624382180754
0.00214084115866244
0.00210117918403972
0.00205600003272918
0.00200316526870611
0.00194240711793805
0.0018603942614036
0.00179679428961669
0.0018127376741862
0.00185620089842123
0.00189922910003726
0.00192922522720316
0.00194723911265742
0.00195735615087229
0.00196467181718836
0.0019647573978799
0.0019550708016164
0.00193306719685743
0.00189719653252586
0.00184076354016344
0.00176890927083347
0.00169009269932024
0.00161026136149622
0.00153459946109743
0.00147270160158394
0.00144128816653523
0.00143980935990177
0.0014726010672101
0.00155129514237991
0.00167419011478377
0.00178884322984196
0.00169157885716142
0.00141140751004996
0.00105397532996371
0.000843676145676488
0.00111434022103313
0.00104426204961708
0.000822508746037218
0.000419141982860366
0.000203048652994074
0.000156327999356836
0.000133872583221779
7.75186061430036e-05
6.6502165240019e-05
6.27463939208527e-05
6.24842024906089e-05
6.74935634019569e-05
7.86980880012121e-05
9.66806450286542e-05
0.000124850359810721
0.000166199617325828
0.000222187200466094
0.000291469607639567
0.000372020583699346
0.000459943573744882
0.000549985106347173
0.000637617932509394
0.000720233761299174
0.00079400534512439
0.000856996213793099
0.000915690695743952
0.000987979793970836
0.00110316511566068
0.00129036242807432
0.00148768037728948
0.00165228947056637
0.00179713801233157
0.00192718003432278
0.00204538516353912
0.00215409494794853
0.00225485236434815
0.0023488058523009
0.00243680393816985
0.00251952173699933
0.00259754981304949
0.00267140057590282
0.00274124802353103
0.00280706347058575
0.00286874033094164
0.00292624305459709
0.00297963930612657
0.00302907459353108
0.00307464518745232
0.00311645606818539
0.00315460903414973
0.00318920512875833
0.00322034589913156
0.00324813459451425
0.00327267692335553
0.00329408113555428
0.00331245718970528
0.00332791509498727
0.00334056262478935
0.0033505032215626
0.0033578365455643
0.00336266123801288
0.00336508278775138
0.00336521379943157
0.00336317233715561
0.00335907551220531
0.00335303588827349
0.00334515307045787
0.00333551265743553
0.00332417990812645
0.00331120979732193
0.00329665629527808
0.00328057926222187
0.00326303950106858
0.00324409266073762
0.00322377700048908
0.00320210970326288
0.0031790914492551
0.00315470950506864
0.00312893727877484
0.00310172313760258
0.00307298206103908
0.00304256758972378
0.00301027660294343
0.00297579402980957
0.00293871684522424
0.00289840824502332
0.00285408207700102
0.00280441818861286
0.00274781905145434
0.00268158281052598
0.00260437422995125
0.00250069482884284
0.00241870050165329
0.00243505238633759
0.00249090913092353
0.00254893575861807
0.00259275634671654
0.00262224790243532
0.002642188577144
0.00265818330464514
0.00266470774027203
0.00265792141769282
0.00263465306527921
0.00259286248538468
0.00252482021852895
0.00243658616017202
0.00233889742884481
0.00223957951539804
0.00214536931357218
0.00206869582004311
0.00203070596318888
0.00203162281211826
0.00207617822967383
0.0021775176996591
0.00233397412577762
0.00248196073369642
0.00236909297523282
0.00201156962734183
0.00154423854036515
0.00124466848904886
0.00152616353573571
0.00141516546245124
0.00114679883737393
0.000582267852607649
0.000271564824189134
0.000192667003846095
0.000214099963088429
0.000145506251312514
0.000122866996337152
0.000114800048689139
0.000112052494178231
0.000117718998331527
0.000133328787640851
0.000159574507518446
0.000200831093751883
0.000260102653267484
0.000337595037817473
0.000430013984435989
0.000533902858227955
0.000644106583273712
0.000754561107945729
0.000860700264606035
0.000960418700706909
0.00105061519565687
0.00113096939525419
0.00121057318909578
0.00131024781953099
0.00146187110107345
0.00169313834823344
0.00193228038627199
0.00213290919825994
0.00231006457610869
0.00246940582385334
0.0026143975776138
0.00274779489824246
0.00287143272825386
0.00298669512135652
0.00309461354206866
0.00319601218317457
0.00329159244554933
0.00338185388273257
0.00346698704151876
0.00354701188635213
0.00362189374723713
0.00369166411872899
0.00375644071864895
0.00381639129575506
0.00387164372328458
0.00392233173378049
0.00396858496214695
0.00401053136135905
0.0040482987306926
0.00408201616763981
0.00411181499405169
0.00413782889729505
0.00416019302057982
0.00417904211901008
0.00419450796826994
0.00420671699396152
0.00421579073863451
0.00422184908806673
0.00422501929997603
0.00422543677575026
0.00422324301662508
0.00421857835356095
0.00421157741941655
0.00420235968022389
0.00419102771577845
0.0041776601304662
0.00416232257434831
0.00414507899614733
0.00412599975117813
0.00410515630367905
0.00408261387570606
0.0040584171856525
0.00403258575287066
0.00400511894912678
0.0039759999561981
0.00394519468519906
0.00391263964069299
0.00387823019779817
0.0038417902390816
0.0038030723361732
0.0037617002162635
0.00371718401438175
0.00366876754691546
0.00361549550067679
0.00355580594848623
0.00348776098247841
0.00340811174338079
0.00331438184723754
0.0031892498500822
0.00308831170312144
0.00310295621503832
0.00317069545576622
0.0032447140444261
0.00330426398456894
0.00334754057646868
0.00337968638118158
0.00340654112688897
0.00342149009200727
0.00341927565143132
0.00339609058264541
0.00334942763787777
0.00327078048715239
0.00316699572541906
0.00305097393653722
0.00293245817234553
0.00281980368654652
0.00272824046842252
0.00268302162611357
0.00268540595193465
0.00274045978718908
0.00286269749760386
0.00305125261199373
0.00323298571614504
0.0031101365642592
0.00268018528961112
0.00210605588876311
0.00171553127711772
0.00199643478280078
0.00183904434478217
0.00152760466880257
0.000794134675781877
0.000355926544461243
0.000232732868652076
0.000278665887015074
0.00023272079374213
0.00019963698119605
0.000185571680851621
0.000178774739386267
0.000184003204749512
0.000203913557819358
0.000239256466947534
0.00029486904263889
0.000373073299040747
0.000472326746434727
0.000587430731365591
0.000713738061122833
0.000845165366528139
0.000975209402583333
0.00109958171595238
0.0012169086173971
0.00132506594201194
0.0014253572239677
0.00152901376956529
0.00165896118188159
0.00184863966042101
0.00212336364269895
0.00240338971152304
0.00263995767644633
0.00284964869765566
0.00303867823423869
0.00321092914429887
0.00336951524777525
0.00351653750426555
0.00365359984299432
0.00378190658896663
0.00390241730868335
0.00401592412997979
0.0041229219115361
0.00422364559288138
0.00431817557880762
0.00440655166385798
0.00448886975820229
0.00456529348157913
0.00463601636143228
0.00470119963581444
0.00476100742946188
0.00481559871309349
0.00486512964575014
0.00490975536196151
0.00494963166914232
0.00498491614327131
0.00501576834238865
0.00504234885425851
0.005064817326323
0.00508332964552286
0.00509803534859632
0.00510907797155033
0.00511659863147836
0.00512074609407572
0.00512167812320018
0.00511955909037485
0.00511455194180503
0.00510681277142636
0.00509648043627635
0.0050836741563755
0.00506848574749585
0.00505099134497296
0.00503126454479913
0.00500938569023355
0.00498543636077203
0.00495949082191747
0.00493159988201946
0.00490178514574788
0.0048700444457419
0.00483635660070077
0.00480067982372331
0.00476293873592668
0.00472300918777396
0.00468068600723992
0.00463567813427641
0.00458754992635503
0.004535726371277
0.00447933661212936
0.00441725972412146
0.00434770357417348
0.00426839719533586
0.00417557103913201
0.00406560623917222
0.00391971336673698
0.00379976465923952
0.00381069040708506
0.00388929839792961
0.00397976359611303
0.00405648674679881
0.00411549355925887
0.00416189920141424
0.00420148240767361
0.00422653521109879
0.00423032564013862
0.0042084141465009
0.00415786889841485
0.00406964987537708
0.00395125670519322
0.00381756302850101
0.00368018918518453
0.00354911846356917
0.00344224604838767
0.00338849726594596
0.00339041685198029
0.00345354962878629
0.00359409257064304
0.00381316364709441
0.00402971407648678
0.00390231698948373
0.0034064217493872
0.00272992165063316
0.00224810025395132
0.00251990165720311
0.00231264597109661
0.00195780895044388
0.00106632638155594
0.000462667922323597
0.000281385761890683
0.000326814702193508
0.000320877699522249
0.000292958352519999
0.000273153163551208
0.000261498296848567
0.00026545812550022
0.00028949283716566
0.000334404254969033
0.000404936610904499
0.000502222576337746
0.000622799192569548
0.000759768415702773
0.000907511716755081
0.00105928393071677
0.00120842691685297
0.00135115121183934
0.00148695447665483
0.00161479104376594
0.00173744411020583
0.00186780730213691
0.00203022611682841
0.00225890289025186
0.00257619232809667
0.0028960700316414
0.00316830762842179
0.00341053686951638
0.00362940705277279
0.00382915209275419
0.0040131943481414
0.00418387713367522
0.00434300867950914
0.00449195610453046
0.00463180473034967
0.00476341308043259
0.0048873034697188
0.00500376712952368
0.00511295315437122
0.00521497636374009
0.00530999447134166
0.00539821486486837
0.00547986037516598
0.00555512725647855
0.00562421164134474
0.0056873032313412
0.00574458754321956
0.0057962479434634
0.00584246758589413
0.0058834306811062
0.00591932280036464
0.00595032992011782
0.00597663639121666
0.00599842197333675
0.00601585909006581
0.00602911303382024
0.00603834578738654
0.0060437270019209
0.00604543597939329
0.00604365898909065
0.00603858057204885
0.00603037727881609
0.00601920651509315
0.00600520348464531
0.0059884728084266
0.0059691007043036
0.00594716989363025
0.00592277002114185
0.00589599205344494
0.00586691861115948
0.00583560610431767
0.00580207792085197
0.0057663301163905
0.00572833697932678
0.0056880490389141
0.0056453792407873
0.0056001844444611
0.00555223157649014
0.00550118760178707
0.0054465604162952
0.00538769348468649
0.00532360790581019
0.00525302443335584
0.00517393583415237
0.00508375251441294
0.00497821860034222
0.004852620563518
0.00468705287354568
0.00454847564649986
0.00455391456839433
0.00464202277822787
0.00474889277958815
0.00484377324955211
0.00492007429639273
0.00498245305850903
0.0050363147468746
0.00507284433948689
0.00508382870276682
0.00506421487276973
0.00501070317696274
0.00491394225982668
0.00478194954198362
0.00463132431868159
0.00447545070707227
0.00432588053204772
0.00420292722932506
0.00413867508493308
0.00413725405862804
0.00420509764679064
0.00436092886770712
0.00460944023530577
0.0048630734014213
0.00473626767829962
0.00418158400129631
0.00340839571987993
0.00283598738620635
0.00309213768745721
0.00283305624064647
0.00243069121044547
0.00140825299525756
0.000600487038404251
0.000340879794591117
0.000369070483044183
0.000388353794899669
0.000394639014047457
0.000374476671698847
0.000358409261370918
0.000360779978398144
0.000388762988364723
0.000443384754221387
0.000528879590759306
0.000644901890253009
0.000786072750669091
0.000944014691588422
0.00111231449610329
0.00128378459472382
0.00145183284932138
0.00161331761672212
0.00176867421233693
0.00191793116778335
0.00206513451604548
0.00222439967733821
0.00242092374588276
0.00268902474796707
0.00304777390377598
0.00340636928554815
0.00371381226906621
0.0039883585761866
0.00423698922804027
0.0044642299405351
0.00467376599196953
0.00486816134058148
0.00504941344949541
0.00521904221434935
0.00537824879378136
0.00552795169443437
0.00566872303793609
0.00580092002936195
0.00592476615480625
0.00604045092938022
0.00614819186222392
0.00624823948440832
0.00634084926713858
0.00642625405142313
0.00650468352492177
0.00657635938564003
0.00664149749585867
0.00670031015348573
0.00675300826777519
0.00679980281029381
0.0068409052309063
0.00687652654174333
0.00690687529323251
0.00693215454990548
0.00695255906000084
0.00696827529946849
0.00697948541766396
0.00698637899594981
0.00698915569950469
0.00698802236109709
0.00698318372630887
0.00697483544230454
0.00696315228299326
0.00694828448432164
0.0069303488040785
0.00690944093226996
0.00688565201529314
0.00685908015245236
0.00682982481043676
0.00679797613743445
0.00676359554726801
0.00672670784363643
0.0066873070622694
0.00664536294503842
0.00660081849479816
0.00655357542559045
0.00650347254908053
0.00645025055237301
0.00639353695277643
0.00633278708064041
0.00626726820561912
0.00619590175299011
0.00611726071436702
0.00602914095318687
0.00592865491250165
0.00581110160148301
0.00567075495252644
0.00548692972911437
0.00533051552968386
0.00532902233564213
0.00542503928055598
0.00554783055809263
0.00566140200323739
0.00575616595338344
0.00583587500679319
0.0059052382116133
0.0059543090613941
0.00597342625163435
0.00595695722913145
0.00590130060065023
0.00579699137426634
0.0056524260238616
0.00548563840240569