/*--------------------------------*- C++ -*----------------------------------*\
| =========                 |                                                 |
| \\      /  F ield         | OpenFOAM: The Open Source CFD Toolbox           |
|  \\    /   O peration     | Version:  2.4.0                                 |
|   \\  /    A nd           | Web:      www.OpenFOAM.org                      |
|    \\/     M anipulation  |                                                 |
\*---------------------------------------------------------------------------*/
FoamFile
{
    version     2.0;
    format      ascii;
    class       volScalarField;
    location    "18000";
    object      omega;
}
// * * * * * * * * * * * * * * * * * * * * * * * * * * * * * * * * * * * * * //

dimensions      [0 0 -1 0 0 0 0];

internalField   nonuniform List<scalar> 
15600
(
1974.82299583555
1972.92013975954
1984.53319841843
2055.7961566065
2222.71941538984
2356.70929351828
2378.43013670133
2300.00512239402
2153.97314645785
1966.46045992146
1762.78600728922
1583.64646781583
1435.68059606399
1312.23597667079
1208.29679661581
1120.03973076823
1041.43393349775
963.356418979228
885.925332482483
810.590310352836
738.639922245681
671.789209618884
614.59280067212
568.680603567432
533.505750621452
508.88082568063
494.945482000238
492.074444492046
493.67682765731
493.695600730712
493.713733581985
493.731754772566
493.748617550068
493.764402570115
493.77895804359
493.792338881452
493.80452481293
493.815535811618
493.825368835427
493.83403149755
493.84153080772
493.847886693482
493.853126649386
493.85726864613
493.86027187757
493.862096211163
493.862854235343
493.862599425519
493.86139782524
493.85932110568
493.856445567131
493.852850735736
493.848617979966
493.843829172505
493.838565347604
493.83290539844
493.826924931009
493.820695268164
493.8142829402
493.807749541309
493.801152015316
493.794543156134
493.787970771661
493.781477244053
493.775098834284
493.768865705495
493.762801733301
493.75692543968
493.751250247034
493.745786578965
493.740542378203
493.735523536535
493.730733280205
493.726172194563
493.72183788442
493.717725906115
493.713830424496
493.710144847602
493.706661673072
493.70337276485
493.700268707715
493.697339572683
493.694574400636
493.691962299783
493.689491699904
493.687150285805
493.684927194568
493.68280464869
493.68077671462
493.678827916316
493.67703576871
493.674990342167
492.085144340369
494.959787017124
508.894623911198
533.520120501126
568.694873813965
614.606929613316
671.803898980447
738.662171069353
810.623419209977
885.972931980547
963.422036616815
1041.52111371599
1120.14915772809
1208.42764813736
1312.38974367989
1435.86111701733
1583.86153268345
1763.0512908328
1966.81386533577
2154.47191106788
2300.71869576072
2379.49492405957
2358.28741614925
2224.92648039978
2057.7599037905
1985.39954155195
1972.95346329052
1974.77330159908
348.855577472884
351.372451403552
371.155959613668
370.29381135432
379.932798718188
395.570298308906
399.550945189727
387.170998247307
363.13515717028
331.877374334169
297.775103967285
267.635149508921
242.805023103748
222.253368846284
205.035240497059
190.464321231352
177.406103145041
164.376756544286
151.339271372566
138.498140021408
126.103751080972
114.635825286442
104.802520256028
96.8006720215034
90.7313625033716
86.6079318793021
84.7973986832894
87.3832721641774
89.3718773396523
88.8646202481682
88.4067008837359
88.0673768313415
87.79677988973
87.5660660874961
87.3610786745023
87.1662661372704
86.9752143732374
86.7823551993896
86.5853754895699
86.3827295310169
86.1741494532485
85.9596182891983
85.7412365689605
85.5352164665139
85.3425416913347
85.1714113138934
84.996848939871
84.8209706066346
84.645009138929
84.47010826561
84.2973256077055
84.1276275993332
83.961888170904
83.8008865430784
83.645305958373
83.4957359903115
83.3526794660597
83.2165588282991
83.0877397775141
82.9665222178007
82.8531727220678
82.747863289534
82.6506935005508
82.5616609245321
82.4807163847296
82.4077298882998
82.3425752933321
82.2850772886182
82.2351020150411
82.1924918993337
82.1570720819901
82.1285980888898
82.106797935382
82.0913636547867
82.0820021571464
82.0784496210537
82.0804382960975
82.0877264336314
82.1000283113028
82.1171621446953
82.1388631434813
82.1651783011977
82.1959256455223
82.2316061429116
82.2721612315125
82.3190220089784
82.3724045403865
82.4355953032277
82.509721924935
82.6073495396829
82.8382857355966
83.2361140289194
83.1979711053538
83.0587875693432
85.2887087555897
89.2505459629817
95.0318378531688
102.586563395875
112.013972448964
122.994878878537
134.911103087742
147.480030553457
160.565173902901
173.968662441758
187.841646151344
203.411678708358
221.634828441347
243.190131155775
268.875402819265
299.656388910717
334.370946040959
367.282972006795
393.898609941103
409.696927035714
410.889724996785
399.017055220425
400.33622060683
402.257797605375
390.321890823815
360.182041246855
142.64809656706
136.84369423715
134.757361323008
128.230082765065
125.60987391173
129.394624968561
130.225779935003
126.776355339629
119.224782624076
109.125088592759
98.1000581674356
88.3468175980738
80.1620228806493
73.3304746652583
67.6172447941729
62.8039719355339
58.5371996706876
54.2908104185526
50.0477015545296
45.8919658422998
41.9213965468753
38.2638382634475
35.1876717736741
32.8149394257442
31.1506490461325
30.1696787245723
30.0127371716342
29.986296673474
29.9745994622805
29.8556670617192
29.7917140535202
29.729497894444
29.6702817670608
29.6116173256521
29.5523934282662
29.4923913774609
29.4315623564839
29.3700535291719
29.308031092613
29.245722720797
29.1834847077461
29.1218987098607
29.0585807433913
28.960380869393
28.8464039949211
28.7420830805552
28.6416272459789
28.5453343176889
28.4530701353771
28.3647377972874
28.2802597254261
28.1995719722007
28.122620009262
28.0493540753672
27.9797253479942
27.9136843837442
27.8511821725686
27.7921722210547
27.7366209467685
27.6845019103144
27.6358075953401
27.5905101817077
27.5485702073071
27.5099183322492
27.4744816440637
27.4421627636948
27.4128828633216
27.3865503419261
27.3631117740767
27.342511679842
27.324693837602
27.3095702483137
27.2970434253897
27.2869981608069
27.279329890245
27.2739496496251
27.2707640232463
27.2696912464876
27.2706233382252
27.2735095167944
27.2782507552271
27.2849319424429
27.2935036465744
27.3043470865329
27.3175140630652
27.3340673372795
27.3543303428015
27.3808509053168
27.4148347312277
27.4505088921893
27.4131025567563
27.3855729806086
27.3351789042365
27.5127123342442
28.143874450588
29.3249046925667
31.1075517027156
33.4423203779831
36.3494682678468
39.7165425889219
43.41847693166
47.3634306484523
51.5390168158212
55.9122882552231
60.6330800115165
65.9665617173552
72.1742114409438
79.4862018208451
88.1182000499778
98.219549953646
109.195367677956
119.721338764761
128.218980720598
132.767308543371
132.704715885693
130.800490398295
133.164259642897
141.721833415059
150.627820284069
150.630468646227
82.6739198022866
77.8417551618749
80.1791091675864
80.472826417066
65.7020633161505
58.7831320345367
58.3022969987374
57.3185352666831
54.2045415007354
49.7806495340677
44.9656502437735
40.7289089503531
37.157170038726
34.2458798042394
31.8509594703214
29.8160328260371
27.9214070428446
25.9448959423099
23.9009873057838
21.8753498205628
19.9768847885652
18.311060074564
16.9843699229729
16.0510632022654
15.5359816757554
15.439220178362
15.6496693227401
15.6815961770472
15.3469373209035
15.0367848110745
14.8811612642789
14.7891279557173
14.7361338110709
14.7059273785171
14.6895086525701
14.6815607439603
14.6788123459381
14.6791718156781
14.6812690830902
14.6841711215713
14.6870180062578
14.687392641974
14.6735834008839
14.6513634480744
14.6264520843297
14.6038646042051
14.5818151558405
14.560340533923
14.5393159364289
14.5186613355549
14.498322872777
14.4782669001387
14.4584748585985
14.4389385652659
14.4196564239124
14.4006312362949
14.3818697357415
14.3633835348621
14.3451938707822
14.3273295242083
14.309830606816
14.2927283669587
14.276047915191
14.2597991780051
14.2439879802889
14.2286062880273
14.2136520568098
14.1991150518321
14.1850025969562
14.1713198433702
14.1580699668519
14.1452394644739
14.1328086504192
14.1207466318564
14.1090251261014
14.0976197006571
14.0864998708072
14.0756370850794
14.0649884348602
14.0545366428335
14.0442402267239
14.0341482969606
14.0242424573979
14.0147284969912
14.0056536106033
13.9976117934414
13.9908478050536
13.9868433206578
13.9864884656184
13.9892368331003
13.9520229666887
13.9216602315198
13.8844906521384
13.9183617429701
14.1702994640649
14.6901642255094
15.4901161010942
16.5382664635034
17.8314210065356
19.3160678848605
20.9521760493448
22.6974506842932
24.5465451341454
26.4902421665575
28.6143342039113
31.0026861993588
33.7468242479729
36.9423968277307
40.6658388310193
44.9125321165015
49.3185300752353
53.4488820973327
56.663521026187
58.1139293934979
57.7174747938357
57.0576909156433
59.9532137750527
67.0630504687423
79.3826673612993
85.8355679573302
53.3798264635716
50.9984621390263
55.8198688248464
64.0498184166926
49.7807733472462
32.8107069567856
30.728461947477
30.7675436040119
29.4194417591836
27.2241851164772
24.8369145631787
22.7545332176615
21.0209664222611
19.6640374567441
18.5425005545144
17.5026495560888
16.3991918683703
15.1768743267559
13.9062076669169
12.6915994322397
11.6278101547742
10.7725251225615
10.1501198070279
9.7768962588702
9.66461778173571
9.78834182019292
10.0203780883398
10.0822634689068
9.80075319848546
9.54197315355448
9.43190045821006
9.38328699460459
9.36804940395434
9.37113433884582
9.38435652453977
9.4031229771608
9.42470256168759
9.44740153347164
9.47012173312935
9.4920122356691
9.511845395481
9.5258029729596
9.53352437978419
9.53754615116664
9.53998877425757
9.54222372780019
9.54361299514399
9.54420767882125
9.54398299255416
9.54293884828383
9.54108799398768
9.53845279651807
9.5350622232393
9.53094914299739
9.52614825196804
9.52069505080908
9.51462592595342
9.50797929584212
9.50079850491626
9.49313099486994
9.48502926106413
9.47653888737651
9.46769965417059
9.45854081817487
9.44908702824787
9.43935362761488
9.42935782627217
9.41911158671902
9.40863644318079
9.39795153938372
9.38707298242739
9.37600594461473
9.36475099158036
9.35330149862847
9.34165206272387
9.3297985425217
9.31773204782891
9.30544353631813
9.29291645030664
9.28014984343391
9.2671327293201
9.25391052646314
9.24049783567212
9.2270491199401
9.21364776410977
9.20072250279416
9.18854850979817
9.1781941647754
9.17049258553084
9.16639527710821
9.14520514890453
9.13537371907602
9.11385765074218
9.0956775939531
9.21789511349412
9.5080881561035
9.96605470511431
10.5699614367392
11.3106279801251
12.1558468833359
13.0863508554388
14.0783350445263
15.1263139332517
16.2257079806549
17.4259704945719
18.7630826078369
20.274363205501
22.0037558710401
23.9834852878194
26.1878161783448
28.4001740492247
30.4314459924251
31.9926349654098
32.6879659687364
32.5087275120653
32.2799353505821
34.267002431715
38.5706587935981
47.0779980447151
53.3102110526988
36.8151717316835
36.0093875162057
40.6404823352377
53.1961840639698
45.6512790392025
22.691122016037
17.8100583416932
18.1894686526533
17.7169833545085
16.623817318352
15.4217448174997
14.3817205559295
13.53087726292
12.8790408655369
12.2817933442933
11.6167202456258
10.8312339034238
9.97351032652625
9.13057885245528
8.3803127621005
7.77283860957741
7.32488769649493
7.03254190090643
6.89995494216416
6.92918672241131
7.0882119341435
7.2781636116185
7.33337788943613
7.14280421449089
6.96846242363581
6.90353612335178
6.88272134703395
6.8849349565006
6.89961892311935
6.92083043951598
6.94531533541042
6.97111523610642
6.99701826101208
7.02219859484467
7.04588583170785
7.06679762628584
7.08364309877392
7.09692607882591
7.10788768550105
7.11747874652268
7.12617300702947
7.13371212825821
7.14014641975723
7.14548676702655
7.14975825891633
7.15299272538704
7.15522683133145
7.15650018132571
7.15685367791617
7.15632834787644
7.15496493281438
7.15280424611395
7.14988827657574
7.14626207751848
7.14197319162376
7.137071379011
7.13160059443736
7.12559956866671
7.11909917655176
7.11212620858377
7.10470102884558
7.09684483724784
7.08857569328022
7.07991788159785
7.07089343537874
7.06152106845803
7.05181151806696
7.04177210444955
7.03140561192199
7.02071622853125
7.00970915643234
6.99838639704565
6.98674982038561
6.97479795591589
6.96254162611529
6.94999021182335
6.93719532002094
6.92419879393849
6.91114418907616
6.89815253566698
6.88559492282071
6.8737955030802
6.86365896354159
6.85604719840984
6.85233235545164
6.8426229468925
6.84693015300772
6.83833736150979
6.80667369108492
6.87117789776724
7.05512525279123
7.35582606717909
7.75719938835791
8.24888332019021
8.8084128882878
9.42399477051706
10.0805944421351
10.7732096798705
11.4991692062375
12.2904623043712
13.1669103778785
14.1459369370989
15.2501472201488
16.4953275407053
17.8565240184119
19.1945506408234
20.4072586666682
21.3434509189761
21.7902155575984
21.7413154883465
21.6697179120759
23.0235484900286
25.7970990880665
31.0966292314319
35.637013960072
26.9470381678196
26.883216585416
30.4371119665783
43.9958999538364
43.7738224651038
19.8725138080329
11.4145594101658
11.4531120806425
11.4271687765809
10.9359961378787
10.3743389823408
9.88997977752146
9.49236923110555
9.17027484518107
8.80029642505361
8.31552868014035
7.73311274331015
7.13199707868384
6.57726495784363
6.11238581170019
5.75919625519013
5.51954827484766
5.38537044656568
5.35770532557232
5.43375601244297
5.5834404239825
5.73490357750389
5.78190725762967
5.65470054756395
5.53740523313087
5.49835188663072
5.49065649244816
5.49922507639338
5.51665128122759
5.53854881301272
5.56254189329525
5.58716113073832
5.61148646131874
5.63485341514473
5.65661522480678
5.67585719394576
5.6923038158597
5.70634666424374
5.71866611950449
5.72974187479275
5.73976482577167
5.74862281439426
5.75635836659393
5.7629928874304
5.76855683829999
5.77308487730824
5.77661453598562
5.77918489280977
5.7808354727765
5.78160553295991
5.78153394576384
5.78065964324549
5.77902257201576
5.77666493283649
5.77363059364331
5.76996424202109
5.76570559424141
5.76088979708241
5.75554592125888
5.74969963860477
5.7433720859499
5.73658500482203
5.72935834183105
5.7217164751477
5.71368165951452
5.70527282286009
5.69650273363242
5.68738163847573
5.67791700940401
5.66811805073376
5.65799511638268
5.647556510347
5.63681078892566
5.62576575631785
5.61444013603827
5.60285653527604
5.59107206471028
5.57914679188763
5.56722147769463
5.55544271757859
5.5441532920099
5.53371059203113
5.52493008836482
5.51869564045574
5.51649139498976
5.51371213285121
5.5258073304406
5.52619279885619
5.49424239336881
5.52916404184585
5.65462415847361
5.86852578502022
6.15855499446677
6.51461670677642
6.919654139948
7.36532588353809
7.8413752191356
8.34348290177483
8.87007354191996
9.44377991176223
10.0776723759881
10.7808279552658
11.5659691932695
12.4417343026578
13.38701491122
14.3054957749573
15.1330648069202
15.780142078597
16.1166218667659
16.1309549741643
16.1200076197266
17.0738550044927
19.0295790459151
22.5232355282205
25.6764572755287
20.7720802414226
21.0059848314819
23.4958768293895
36.0895536087478
41.1251878167285
20.4931039351749
8.58247268961895
7.67272524827775
7.80655140495023
7.6391408491509
7.42260326543906
7.23706853739228
7.07430335708565
6.91265067008174
6.66271200987781
6.30300340464542
5.8793873511572
5.46294864687257
5.09518597945441
4.80005060949329
4.58824207373724
4.45837774069066
4.40344749876849
4.42303792007101
4.51194012351116
4.6442274400829
4.76711590860782
4.80736494064211
4.71941919188693
4.63755093028894
4.61323458074137
4.6120418355676
4.62288772702129
4.64035031285966
4.66106165404613
4.68320578610906
4.70562641726496
4.72758922629091
4.74854150399147
4.76795494539296
4.7853114086475
4.800583678253
4.81405381699093
4.82612169560674
4.83704863824728
4.8469207880848
4.85568905659732
4.8633882254939
4.87004190864145
4.87568006185722
4.8803356993971
4.88404386087434
4.88684060710099
4.88876222771457
4.88984478351515
4.8901241354603
4.88963639621312
4.88841871838579
4.88651008305103
4.88395063942762
4.88078058014379
4.87703577598453
4.87274813509448
4.86794475895156
4.86264996950232
4.85688483375143
4.85067099211816
4.84402912467346
4.83698318141335
4.82955504024393
4.82176332667294
4.81362174152311
4.80514214624169
4.79633483119831
4.78721205365262
4.77778733954948
4.76807294189418
4.75808173173258
4.74782749102365
4.73733425703717
4.72663307361286
4.71578470245954
4.7048606561082
4.69399985673819
4.6833640964571
4.67327682263153
4.6641127775936
4.65662443048337
4.65169864245415
4.65081911202341
4.65214336337688
4.66818714221328
4.6744724024123
4.64646105189922
4.66505912082078
4.75471703988371
4.91482697464808
5.13580941840108
5.40831187504102
5.71870604679642
6.06052218662707
6.42634637132914
6.81250666331905
7.21813914193132
7.66027129413804
8.14861123518381
8.68835686866406
9.28717111493824
9.95016708419872
10.6599548975913
11.3462788439239
11.9646444477381
12.4565195660067
12.7336551532877
12.7789711732217
12.7909593954027
13.4820502812966
14.9390466745206
17.41942485042
19.6791438698193
16.6862119159513
17.022044909147
18.7201498799231
29.5482288445725
37.7735461263399
22.3570176783493
7.84824499782918
5.58345520606825
5.65161278132243
5.64391547319245
5.6019521916036
5.57034046360594
5.52783659269908
5.44992697825741
5.27744238864375
5.01373927764455
4.70843171543167
4.41706399323792
4.16693720897485
3.97330780775439
3.84290564709617
3.7740384680245
3.76095890709953
3.80216520827837
3.89138165020419
4.00679847561456
4.10853314815746
4.14327571147895
4.08034877112535
4.02146065052461
4.00625111638635
4.00869277290206
4.02038341808009
4.03719612174294
4.05646127481562
4.07673957464602
4.09708994857705
4.11690819579706
4.13573355660779
4.1531489469851
4.16887979699982
4.18295588579123
4.19557640330402
4.20698710673091
4.2173382348932
4.22667272551134
4.23497088126628
4.24226135530917
4.24856731709833
4.25391675254605
4.25834016004085
4.2618696828915
4.2645383079138
4.26637926555892
4.26742572759824
4.26771091051334
4.26726850194642
4.26613329402775
4.26434164424395
4.26193073414996
4.25893731063919
4.25539430901719
4.25133123264451
4.24677372492114
4.24174516540842
4.23626657014792
4.2303595352585
4.22404520818796
4.21734715676324
4.21028685699861
4.20288261956497
4.19514872340154
4.18709814036513
4.17874312103803
4.17009801284171
4.16117847004701
4.15199937715879
4.1425765147454
4.13292774231793
4.12308059738752
4.11307158738268
4.10296360731202
4.09283507356257
4.08282263798292
4.0730961239856
4.06396297279912
4.05580388698964
4.04931994267561
4.04538555407979
4.04543782454957
4.04915320931173
4.06692244222596
4.076941099346
4.05391642156882
4.06321223382079
4.12941934252014
4.25354128486299
4.42812024683785
4.64469378210502
4.8920144396788
5.16475084363407
5.45728898183104
5.76651788033127
6.09206997620425
6.44732068050612
6.84004737345052
7.27351621287352
7.75261269923493
8.28056916887121
8.843152274765
9.3872811046178
9.87987039656259
10.2793874778833
10.5203221144573
10.5805518290555
10.5985126113889
11.1106782739259
12.2316030230104
14.0926123722729
15.7889050442996
13.835710276504
14.1919474817011
15.3704263635356
24.1567014275291
34.3753248007734
24.2159289630073
8.46756269836177
4.53266341558729
4.34018730502607
4.39501945673771
4.43418400732464
4.476535427555
4.49419865307328
4.46279322339946
4.3440155246904
4.15136215424297
3.92929550171443
3.72066906178903
3.54531996837628
3.41452462614997
3.3333189603231
3.30014333546257
3.31006281765641
3.36076180504206
3.4456591469724
3.54646856515786
3.63220616491631
3.66261369155226
3.6166420737426
3.57359471553345
3.56453970217228
3.56932573657972
3.58140728060939
3.59754483883745
3.6155717029896
3.63431609121782
3.65299446493373
3.67110064012399
3.68825162043946
3.70412406294978
3.71857668287779
3.7316451294628
3.743469188725
3.75420456705469
3.76394127880804
3.77270310530396
3.78048479736159
3.78731053369297
3.79320236501619
3.79818626175537
3.80229043009703
3.80554455163789
3.80797912011853
3.80962497058446
3.81051307661091
3.81067469100649
3.81014173578379
3.80894730076921
3.80712585900043
3.80471244973845
3.80174135435763
3.79824344448751
3.79424661508632
3.78977563060893
3.78485341094764
3.77950114743185
3.77374061176667
3.76759343475105
3.76108299768266
3.75423051418288
3.74705410589337
3.73956853488645
3.73178768074332
3.72372531976977
3.71539737568616
3.70682104092868
3.69801304804807
3.68899126240152
3.67977634820176
3.67039819617935
3.66089687564964
3.65133633878797
3.64179891502766
3.63241843212674
3.62336798463022
3.61494056750269
3.60751522208838
3.60174805415733
3.59849035709392
3.59911286580186
3.60414780965793
3.62233314546015
3.63458269172789
3.61643305270479
3.62042849904156
3.67057234931944
3.76931046896476
3.91089876563125
4.08778724130893
4.29049240212786
4.51444044756461
4.75521337792914
5.01017885843515
5.27933587275468
5.57353034299602
5.89929619994572
6.25889657035725
6.65562692377351
7.09168802983725
7.55550226960129
8.00604435378625
8.41742481798125
8.75785242523665
8.97453814399018
9.04076277096995
9.0559664241477
9.44117262059832
10.3219073040205
11.7716748114756
13.0974158375204
11.7547241947498
12.0982076639187
12.9583472235886
19.7890571167178
30.9558598673142
25.5162626633253
9.84045265681081
4.1843729447629
3.53517420484896
3.58491790050271
3.65683845055473
3.73111165598618
3.77767574760646
3.77298572504212
3.69155543284017
3.54965246509054
3.38508140850631
3.23176602837178
3.10542974127038
3.01518212150953
2.9650728186856
2.95363975658692
2.97643343802589
3.03058838886811
3.10963552134853
3.19818382836286
3.2716110148364
3.29875724588917
3.2650124105089
3.23352023571782
3.22899105348117
3.23553355271921
3.24793233335775
3.26358298256837
3.280695957749
3.29829843111977
3.3157281085129
3.33255621653411
3.34846316012678
3.36320743670336
3.37670904959058
3.3889997480458
3.40017738123186
3.41034284313853
3.41955204416234
3.427819900187
3.43514858394878
3.44155917486278
3.44707265300121
3.45171337472547
3.45550778568117
3.4584837373726
3.46066992374572
3.46209550133832
3.46278995283616
3.46278324481021
3.46210617935757
3.46079077940835
3.45887031630194
3.45637842377988
3.4533477385746
3.44980780259124
3.44578556891427
3.44130543582328
3.43639029491482
3.43106176820245
3.42534204151338
3.41925333732416
3.41281907446972
3.40606038446462
3.39899535613666
3.39163923814715
3.384006741875
3.3761129365078
3.36797503408056
3.35961141621601
3.35104020077999
3.34228077866261
3.33335577641514
3.32429670189012
3.3151459311425
3.30596773873013
3.29684638097627
3.28791242973385
3.27933909678167
3.27140586485416
3.26448510199766
3.25919218683722
3.25634831848349
3.25724969660807
3.26290776933896
3.2807216852668
3.2941538669231
3.2803570779263
3.28143817656937
3.32024182114193
3.40038485955278
3.51753794659762
3.66503417802369
3.83476050005703
4.02268633577261
4.22522252155095
4.44014922772709
4.66774969708719
4.91703561281215
5.19366364359754
5.49936682266132
5.83651602009245
6.20676983424241
6.60083085972183
6.98654719607342
7.34277740222188
7.64329843542094
7.84233943378664
7.90894511722424
7.9163067355208
8.20814695420418
8.91058112223503
10.0694788146853
11.1378927381377
10.1777737180124
10.495874375724
11.1680764791686
16.3087894978803
27.5889571507424
26.1113030022007
11.5771022958452
4.39785891752159
3.0630036400508
3.04196662739231
3.12012911619391
3.20471337311591
3.26383551663413
3.27462088713817
3.21902590448298
3.11303156930629
2.98850523331399
2.87311826742284
2.78004635365091
2.71697782576282
2.68724337542466
2.68941089473952
2.7193445711983
2.77385357145464
2.84679757958429
2.92514881760789
2.98899886123695
3.0138160086106
2.98938400440342
2.96674906463969
2.96580876515247
2.97385165502482
2.98664474374368
3.00205458889763
3.01858377342842
3.0354130967171
3.05197723277229
3.06791091040719
3.08294792823493
3.09690846343118
3.10974236741636
3.12147491385008
3.13217458368624
3.14190803658559
3.15071133822775
3.15859528637044
3.1655660770855
3.17164278229093
3.17684562318296
3.1811978610926
3.18472476592005
3.18745299208273
3.18941009048853
3.19062419520509
3.19112393228715
3.19093858305907
3.19009839999601
3.18863489899972
3.18658074150487
3.18396878455863
3.18083069504102
3.17719528819409
3.17308911967323
3.1685366525911
3.16356111373447
3.15818479388332
3.15243051353314
3.14632122354162
3.13988059773192
3.13312986784004
3.12608724418378
3.11876850507437
3.11118917662311
3.10336549463323
3.09531579573303
3.08705944890098
3.07861566886272
3.07000496108706
3.06125137537609
3.05238754086107
3.0434572935946
3.03452473271914
3.02567470497518
3.01703423194902
3.00877454242591
3.00116228434242
2.99455987961259
2.98954513916332
2.98690478214796
2.98785776217612
2.99367076785806
3.01063319832593
3.02450948729608
3.01442726806326
3.01405069823053
3.04468264799689
3.11081852610659
3.20930766577543
3.33431443953406
3.47882900172464
3.63923589827554
3.81254449029084
3.99689778702973
4.19280882513448
4.40790991309155
4.64719335978632
4.91211529608367
5.20451877350431
5.52583214726976
5.86877051487945
6.20793993444024
6.52532446568113
6.79769340226536
6.98274296662815
7.04575911778684
7.04195850976518
7.26322993660146
7.82976759789415
8.7732232174828
9.65374981658912
8.94609134682142
9.23513820037513
9.79713822691926
13.5702424290082
24.3687179486233
26.0284160706495
13.5006122126913
5.05679133610496
2.8460494813771
2.67257878243101
2.73742771661285
2.82069371746853
2.88355784884091
2.90315132185811
2.86548412099544
2.78511773493742
2.68905583099469
2.60044052883705
2.53068043816514
2.48640883230372
2.47038151052112
2.481163871763
2.51485797966923
2.5681219005461
2.63524623574191
2.70514272980777
2.7615027817915
2.78477069714606
2.76776709483816
2.75221918010104
2.75431293781788
2.7637652676207
2.7770876311388
2.79250587926096
2.80875460947927
2.82513687475007
2.84116718611481
2.85653366801852
2.87101490877269
2.88447598510059
2.89688218568622
2.90825254164482
2.91863516930429
2.92807507464892
2.93659665787495
2.94420895502194
2.95092055222472
2.95674938195038
2.96171530611103
2.96584101574986
2.96915116369993
2.97167178857088
2.97342988555027
2.97445314291839
2.9747698820388
2.97440921948654
2.97340135170906
2.97177777277171
2.96957104351767
2.96681378084708
2.9635372422008
2.95977001575113
2.95553870857357
2.95086821074002
2.94578238981998
2.94030441820036
2.93445794809958
2.92826680188071
2.92175511107398
2.91494438093229
2.90785308730925
2.90049759798126
2.89289426692744
2.88506043196795
2.87701546428731
2.86877962814918
2.86037299104904
2.85181692475708
2.84313653305504
2.83436522542309
2.8255477179107
2.81674759664954
2.80804938919214
2.79957638049298
2.79149641247815
2.78406384957336
2.77762905289403
2.77273479702655
2.77013070385445
2.77095845539079
2.77660248840236
2.79242010568296
2.8062155847859
2.79921243847217
2.79827170107471
2.82293321808249
2.87829390027048
2.96218518788548
3.06954108744582
3.19426400309995
3.33307361776738
3.48343116241872
3.64380668765927
3.81490513692061
4.00328890402111
4.21341949486457
4.44661794732816
4.70445072203755
4.98833562330608
5.29281214208241
5.59772900050825
5.88701299684006
6.13859964084593
6.31153110370205
6.36780791351227
6.35057519631525
6.51758087749264
6.97853136114921
7.75694938445396
8.49447803346504
7.96022111293119
8.22050955770442
8.71540788285814
11.4344405067127
21.3429944329918
25.3663476306794
15.4219576823314
5.97011317116537
2.86349038615777
2.4291300672931
2.45838277381399
2.53273804677575
2.59417032548395
2.61842652124723
2.59331023691662
2.53154887484289
2.45620594739388
2.38700929490592
2.3340359811474
2.30308481705223
2.29644206321632
2.31266826585444
2.34807759415657
2.39930485815409
2.46110926943993
2.52400854629167
2.57450806968917
2.59686616556644
2.58602015412773
2.57635817223259
2.58115335663224
2.59201008407067
2.60601599467968
2.62167712481075
2.63791594226053
2.65413512449138
2.66991634684893
2.68499336329818
2.69918207260324
2.71238044803688
2.72456247681007
2.73574220914764
2.74595387771146
2.75522881621094
2.76358465811311
2.77102995094067
2.77757493626238
2.78323711182177
2.78803639964166
2.7919954167766
2.79513871266656
2.79749223314688
2.79908293833974
2.7999385770856
2.80008764814382
2.79955955709712
2.79838487504741
2.79659549855142
2.79422433198609
2.79130421748885
2.78786647869627
2.78393989946036
2.77955151690572
2.77472695826298
2.76949099372796
2.7638678678656
2.75788224124192
2.75155895026511
2.74492277252481
2.73799564930744
2.7307964552365
2.72334221506802
2.71565014108875
2.70773864738559
2.69962811918946
2.69133962243839
2.68289393791746
2.67431313519531
2.66562311492816
2.65685782997153
2.64806247505749
2.63929989435965
2.63065367237058
2.62224324800805
2.61423213892569
2.60686290193148
2.60047250116334
2.59557079499095
2.59286889973245
2.59343257010269
2.59867807716234
2.61317377762685
2.62651298437719
2.62200268131659
2.62103692371743
2.64129612975585
2.68823293887021
2.76049152539026
2.85370988146909
2.96256023090084
3.0840460271132
3.21598729564581
3.35715625393499
3.50842151143152
3.67549165865602
3.86238736181705
4.07037877627474
4.30092598412241
4.55560756002552
4.83064584241858
5.10997145229348
5.37841266628723
5.61389234757494
5.7698352685698
5.82231770364629
5.78996737943276
5.91505932126579
6.29275945070677
6.94155655782441
7.5666274648393
7.15518753037766
7.38870581973072
7.83848667369044
9.7774132043409
18.525225777778
24.2449562482445
17.174976428389
7.14880393555437
3.13255599140481
2.2934373964783
2.25432281407872
2.31244585270126
2.36878833922549
2.39490477550814
2.37862939858912
2.33062924963532
2.27071472875666
2.21594065128829
2.17532377508159
2.15398375887904
2.15382582532201
2.17342040243588
2.20929122412316
2.25813990508257
2.31519606892205
2.37231880354738
2.41825174630647
2.44022040696168
2.43464552047849
2.43003335401105
2.43733280054361
2.44963549563411
2.4644826621156
2.48060247688977
2.49707176681073
2.51337589460599
2.52915393120938
2.54417911737763
2.5582982756861
2.57143423796985
2.58356656879077
2.59470588297816
2.60487723591
2.61410351632061
2.62239864794817
2.62977145536825