/*--------------------------------*- C++ -*----------------------------------*\
| =========                 |                                                 |
| \\      /  F ield         | OpenFOAM: The Open Source CFD Toolbox           |
|  \\    /   O peration     | Version:  2.4.0                                 |
|   \\  /    A nd           | Web:      www.OpenFOAM.org                      |
|    \\/     M anipulation  |                                                 |
\*---------------------------------------------------------------------------*/
FoamFile
{
    version     2.0;
    format      ascii;
    class       volScalarField;
    location    "18000";
    object      p;
}
// * * * * * * * * * * * * * * * * * * * * * * * * * * * * * * * * * * * * * //

dimensions      [0 2 -2 0 0 0 0];

internalField   nonuniform List<scalar> 
15600
(
-0.0814040266029295
-0.0708123898987523
-0.0714462371876179
-0.039838111626248
-0.0197248838312439
-0.0103584589234624
-0.00649077373417222
-0.00342383350494625
-0.00168677019908708
-0.00030673986564293
0.00052301989997072
0.0011333474955098
0.00157378987062538
0.00188003645085954
0.00211665404994552
0.00232866706526997
0.00262590114641637
0.00302437894323721
0.00355801754408399
0.00422640146469553
0.00499447787696319
0.00573267491200505
0.00639790244449779
0.00697557596716919
0.00738460597840238
0.00757248907662242
0.00755791892506794
0.00645045888182995
0.00555882962451102
0.00550863807019054
0.00591293807380671
0.00683919428846158
0.00818866991679005
0.00992868770942815
0.0120093526891522
0.0143997760737491
0.0170690753262613
0.0199930672227822
0.0231491122028242
0.0265172076720141
0.0300783183736166
0.0338144905301608
0.0377081988590301
0.0417420485537339
0.0458987345350385
0.0501616782268865
0.0545146429562226
0.0589417713151454
0.0634277849560717
0.0679580231979956
0.0725185033210154
0.0770959772988542
0.0816779807726073
0.0862528763259195
0.0908098883874731
0.0953391252920307
0.0998315847557631
0.104279154253202
0.108674570114449
0.113011422488667
0.117284074813942
0.121487719873719
0.125618324280795
0.129672661432287
0.133648199658583
0.137543118495582
0.14135613709781
0.145086539259346
0.148733998187947
0.152298602473576
0.155780787324779
0.159181380615982
0.162501531510947
0.165742705484048
0.168906602521629
0.171995099880974
0.175010256396934
0.177954239974749
0.180829432091608
0.183638217663441
0.186383297374192
0.189067152640278
0.19169288095641
0.194263018181677
0.196781412916622
0.19925081608557
0.201676548129701
0.204062259961478
0.206415625797904
0.208743413959857
0.211056370742353
0.2133751352357
0.215673171859816
0.218235877615803
0.220718462363066
0.223378033571919
0.226035372070778
0.228751324227066
0.231403255848895
0.233929621867661
0.23602262765782
0.237490032595108
0.237999483431767
0.237365954070357
0.235319754350514
0.232204053196737
0.227930257815633
0.222157082246116
0.21446317947064
0.203864200552927
0.188580784463379
0.164325872263779
0.128806923839492
0.0798934522402976
0.0101129623760926
-0.0753578263828231
-0.165769780947646
-0.176196927823722
-0.151320756670463
-0.101456801099389
-0.0815855095479255
-0.0709024810867947
-0.0714682392486202
-0.0401284626781252
-0.0200306353732416
-0.0105536130116341
-0.00660750998136487
-0.00350571917483052
-0.00173559832526425
-0.000335683189828878
0.000513028523306693
0.00113424855134135
0.00158358374848769
0.00189662312770539
0.00213748889100372
0.00234974582012978
0.00264323321754974
0.00303592464718734
0.00356229369829958
0.00422390937252573
0.00498916016571194
0.00572894719671183
0.00639671688775781
0.0069772924941345
0.00738867251622626
0.00757790733631048
0.00756366947232032
0.00644695095063689
0.00555576017550929
0.00550421428092729
0.00590539095894078
0.00682974132347115
0.00817755278531074
0.00991621355687377
0.0119956681417506
0.0143850439483307
0.0170534282725738
0.01997663955193
0.0231320263455038
0.0264995800159642
0.0300602551156974
0.033796089117801
0.0376895262368171
0.0417231079973387
0.0458795680075636
0.0501423790759801
0.0544952826192724
0.0589224080489127
0.0634084685193645
0.0679387950435397
0.0724993971136113
0.0770770192854459
0.0816591901277515
0.0862342654644368
0.0907914632731037
0.0953208858074948
0.0998135250820899
0.104261263531176
0.108656832938566
0.112993819797025
0.117266584083304
0.121470315329421
0.125600976825883
0.129655339096361
0.133630867792353
0.13752574066512
0.141338675723141
0.145068956774223
0.148716258056684
0.152280669691916
0.155762628402654
0.159162963601137
0.16248282626138
0.165723684237395
0.168887241004899
0.171975378074647
0.174990159229366
0.177933757515518
0.180808560533312
0.183616959706649
0.186361664480378
0.189045165803414
0.191670573501193
0.194240437306108
0.196758623003261
0.19922790373828
0.201653628286366
0.204039491381165
0.206393195265338
0.208721564429422
0.211035474070094
0.213355653895523
0.215658180936451
0.21823483911875
0.220733381168155
0.223408952629911
0.226080081908098
0.228806417539945
0.231461888026727
0.233978690517256
0.236045334075285
0.237469556586886
0.237921315495777
0.23722002399493
0.235111134169978
0.231938894167593
0.227597533848786
0.221738552158554
0.213925180536722
0.203142909474843
0.187554419647999
0.162904202344694
0.126990633249842
0.0776794443253383
0.00783751037478026
-0.076889477123735
-0.165523485777326
-0.175603358958903
-0.151267110428734
-0.101652688978106
-0.0822668202260985
-0.0713109898121715
-0.071646238427796
-0.0404539979802392
-0.0203008389425538
-0.0107266400319474
-0.00671546169786925
-0.00358349508942268
-0.00178307630475324
-0.000364147298944426
0.000502868312521262
0.00113488848869264
0.00159301179372158
0.00191271389530381
0.00215771441595229
0.00236996646667058
0.00265889421572368
0.0030439541158513
0.00355992666996144
0.00421002026703212
0.0049659046362097
0.00569990763286521
0.00636279168912454
0.006938863864925
0.00734574406293367
0.00753010940243865
0.00750903491988748
0.00638266317140725
0.00550253892069714
0.00545303839381495
0.00585355167405762
0.00677879930223043
0.00812716187104025
0.00986646788515881
0.01194647962615
0.0143364664753976
0.0170055050658119
0.0199294492744642
0.0230856379827487
0.0264540588696029
0.0300156454991631
0.0337524055815197
0.0376466951474271
0.0416810373217316
0.0458382678329293
0.0501018989851544
0.0544556164071457
0.0588835493559096
0.0633703998236417
0.0679014904870874
0.0724628240061146
0.0770411392712905
0.0816239600976534
0.0861996382215053
0.0907573880413682
0.095287308778701
0.0997803898236245
0.104228512065796
0.108624406130774
0.112961658818111
0.1172346298263
0.121438508157214
0.125569255381065
0.129623640752443
0.133599128122945
0.137493895086417
0.141306660029746
0.145036709490494
0.148683721914988
0.152247792472092
0.155729362183314
0.159129264531536
0.162448654632592
0.165689005528389
0.168852028034892
0.171939612489062
0.174953833054306
0.177896873135836
0.180771133322032
0.183579017843694
0.186323255401667
0.189006355368762
0.191631456657791
0.194201136101905
0.196719322973424
0.19918884130829
0.201615083094602
0.204001809937126
0.206356806355703
0.208687062158605
0.211003444659746
0.213327485012321
0.215633008862875
0.21821925892578
0.2207282893853
0.223414840815054
0.226093752343364
0.228823591829942
0.231473812904668
0.233971287132469
0.23600181133664
0.237374599772965
0.237762315403564
0.236990347558648
0.234816793650454
0.231581729712445
0.227161832448217
0.221203020230481
0.213253237518679
0.202270046889874
0.18637948448918
0.161384108542718
0.12517755058376
0.0756839041967803
0.00622358085490616
-0.0770157025803527
-0.163411015538197
-0.173930246289295
-0.151229469333701
-0.102358233401632
-0.0833004362539077
-0.0719391992996103
-0.0719597613832415
-0.0409420584169665
-0.0206183774422837
-0.0108786275375341
-0.006814334512879
-0.00365741227653011
-0.0018294663385635
-0.000392579939314795
0.000492442118700946
0.00113521486527714
0.00160202346983017
0.00192793512167625
0.00217611786908665
0.00238661011581107
0.00266762846787541
0.00303989728596603
0.00353852265936617
0.00416824155411729
0.0049038461646882
0.00562079650743643
0.00626803243602822
0.00682898994879561
0.007221723570802
0.00739163662371841
0.00735490004458734
0.00624208019626006
0.00541533190885662
0.00539305306661774
0.00581239522076458
0.00675317921764178
0.00811268094970102
0.00986053596091291
0.0119468907270195
0.014341613126964
0.0170140192306183
0.0199401948999715
0.023097608311594
0.0264663637469928
0.0300274771165167
0.0337630279090542
0.0376554256002025
0.0416873710229029
0.0458418392557177
0.0501023267858414
0.0544525586137982
0.0588767399837245
0.0633596338841183
0.0678866219945456
0.0724437620402031
0.077017843533967
0.0815964360311296
0.0861679317984451
0.0907215804591984
0.0952475114887125
0.0997367397238748
0.104181168241103
0.108573545994954
0.112907476258015
0.117177330193434
0.121378303386026
0.125506357831466
0.129558260071667
0.133531467344659
0.137424150719158
0.141235021336578
0.144963360951823
0.148608845012867
0.152171565994815
0.155651959428471
0.159050851141497
0.16236938749335
0.165609033850033
0.168771497097076
0.171858666671048
0.174872618613776
0.177815538240424
0.180689832577852
0.183497912488527
0.186242525051652
0.188926198033826
0.191552124965332
0.194122919907704
0.196642536682818
0.199113849503738
0.20154239041154
0.2039320711407
0.206290801696598
0.208625901652841
0.210947837286194
0.213280052363758
0.215585946264905
0.21817170341648
0.220679792176107
0.223365776681525
0.226039861551314
0.228759852591363
0.231389647305118
0.233852423916442
0.23583376256764
0.237146082464598
0.237465552213587
0.23662527165949
0.2343933121997
0.231096917723035
0.226592862569234
0.220522526625189
0.212418546015127
0.201213931087045
0.18502210367161
0.159735288861232
0.123344773534225
0.0738808580601804
0.00519265232085339
-0.0759227779513039
-0.159436324860581
-0.170479323006118
-0.150385743138453
-0.103203843515697
-0.0837501973946496
-0.0720777416835111
-0.0718284546270412
-0.0414430119963779
-0.0211264768882683
-0.0110257340256596
-0.00691192881939041
-0.00373107656018997
-0.00187742015841729
-0.000423184345628887
0.000480076828861121
0.00113368532312081
0.00160886749677161
0.0019399062196503
0.0021893133121945
0.00239524063152629
0.00266434698775304
0.00301925002824557
0.00349570063567413
0.00409967188217742
0.00480881035037124
0.00550364016898835
0.0061319141483048
0.00667569991712337
0.00705492557824737
0.00721480508527133
0.00717487239514515
0.00612797629751654
0.00540176206306565
0.00542332360853592
0.00586946365774421
0.00682699443219127
0.00819543317842325
0.00994768396797292
0.0120350339535157
0.0144283622014418
0.0170974685510421
0.0200188361104229
0.023170181278661
0.0265318233310605
0.0300849698722745
0.0338118566593145
0.0376950572812644
0.0417175097045216
0.0458622477774069
0.0501127722854243
0.0544529175546089
0.0588669934520433
0.0633398522773933
0.0678569581207418
0.072404442492516
0.0769691600717392
0.08153873679409
0.0861016124983572
0.0906470758224658
0.0951652874679452
0.0996472862949189
0.104084994454354
0.108471174640161
0.112799441217819
0.11706416982953
0.12126055383899
0.125384544555583
0.129432893421781
0.133403037499552
0.137293127940119
0.141101855384237
0.144828484773754
0.148472677555574
0.152034513070392
0.155514409818707
0.158913173258453
0.162231927434079
0.165472116647665
0.168635431748193
0.171723750523282
0.174739141162292
0.177683780855273
0.180560074361437
0.183370429780495
0.186117609076604
0.188804160222557
0.191433294723081
0.194007655224192
0.196531314053063
0.199007223742601
0.20144102741452
0.203836766493504
0.206202472758832
0.208545876650512
0.210876650858855
0.213220420582075
0.215522773988914
0.218096998626733
0.220591319963581
0.223265491359782
0.225922383872258
0.228619796583601
0.231214724790666
0.233628258814872
0.235548171018011
0.236792253821607
0.237041316499108
0.236138150773133
0.233860171388732
0.230515641775239
0.225937235645211
0.219760686865942
0.211501815071236
0.20006901593196
0.183574165158214
0.158020522665485
0.121497177973567
0.0721491639577311
0.00436433592778949
-0.0744263006682664
-0.154620433499964
-0.165521724100346
-0.147915494473522
-0.10305984170128
-0.0833668841251494
-0.0715222673783262
-0.0709472452917261
-0.0416003875822984
-0.0218102465419797
-0.0112102953381691
-0.00701159860794862
-0.00380743947667756
-0.00192920996214375
-0.000458271730071613
0.000463429200354027
0.0011278538862216
0.00161093968262659
0.00194618236030325
0.00219605219665739
0.00239766760656568
0.00265602489137859
0.00299580563260508
0.00345270901665987
0.00403295334782029
0.00471672899067579
0.00539124800554307
0.00600365039733149
0.00653498612625144
0.00690885997520593
0.00707126026434273
0.00704424611863559
0.00609013692471957
0.00545892258851752
0.00550416641217174
0.00596218939061888
0.0069218583446373
0.00828656263765116
0.0100319460373192
0.0121103325324121
0.0144934221260216
0.0171513790698262
0.0200609808571695
0.0232001125796225
0.026549251748211
0.0300897301696939
0.0338038872649008
0.037674413165403
0.0416843176289315
0.0458167096590942
0.0500551418110276
0.0543835192891932
0.0587862171545497
0.0632481425898863
0.0677548091736278
0.0722923910618547
0.0768477787668402
0.0814086269981707
0.0859633972276316
0.0905013927971582
0.0950127829174564
0.0994886093166973
0.103920793745501
0.108302094717536
0.112626121728533
0.116887240232036
0.12108062816371
0.125202213577337
0.129248721450607
0.133217558093915
0.137106845787257
0.140915246687409
0.144642002868783
0.148286756991748
0.151849572208243
0.155330847420709
0.158731365516875
0.162052226080725
0.165294850813715
0.168460913880769
0.171552282004139
0.174571017200499
0.177519290407018
0.180399506624421
0.183214074782303
0.185965777502153
0.188657172245605
0.191291529451884
0.19387154315633
0.196401373782134
0.198884046378887
0.201325332713716
0.203729397249849
0.206104380786915
0.208458382779115
0.210800074024417
0.213156885431293
0.215455608353964
0.218013101051838
0.220484278731382
0.223138198515632
0.225767883546613
0.228431875806713
0.230979273640904
0.233329509103654
0.235173814984741
0.236337276868473
0.236506490243839
0.235535254847737
0.233210667956517
0.229819739198321
0.225168139740125
0.218884123799083
0.210464023180207
0.198787997479057
0.18196256480013
0.156108182805949
0.119410151310386
0.0701256060494926
0.00318610499493353
-0.0733152312548476
-0.150064793651639
-0.160326280685041
-0.144464964220068
-0.101872539285334
-0.0826239631568475
-0.0706400097283671
-0.069655062080982
-0.0413455480964778
-0.02243383976697
-0.0115329136673571
-0.00710641888809087
-0.00388821056773797
-0.00198542542934824
-0.000498446497366972
0.000441935962545053
0.00111767190913708
0.00160949066236749
0.00195059529552667
0.00220439996239708
0.00240725580844162
0.00266080029963932
0.00299023986723133
0.00342996605950431
0.0039864179533654
0.00464318031774614
0.00529569601974461
0.00589119318114376
0.00641035058486954
0.00678085869975648
0.00694834623108821
0.00693217481038228
0.00606175230785802
0.00549822791270434
0.00555102276904926
0.00601437959341816
0.0069712522819494
0.0083291086492216
0.0100652855976981
0.0121329740311418
0.0145044994001163
0.0171503090948217
0.0200474093039742
0.0231738135958653
0.0265101270571876
0.0300377523991936
0.0337391192554027
0.0375969838954952
0.0415944491324452
0.0457147002464375
0.0499413546966831
0.0542583781020424
0.0586502004396772
0.0631017765950574
0.067598662838435
0.0721270698022676
0.0766739181226639
0.0812268858882952
0.0857744510064207
0.0903059264450845
0.0948114848805556
0.0992821658507837
0.103709885706511
0.10808739378799
0.112408290254643
0.116666926038013
0.120858459928692
0.124978792736156
0.129024619179575
0.132993310780696
0.136882957451049
0.140692189236648
0.144420222683696
0.148066679331214
0.151631605192199
0.155115379079434
0.158518761128512
0.161842826082046
0.165088972926987
0.168258859304699
0.171354341995356
0.17437747889898
0.177330437103759
0.18021562509128
0.183035457665102
0.185792735453283
0.188490040160955
0.19113070453374
0.193717465971326
0.196254577170951
0.19874513331792
0.201195042340703
0.20360856376527
0.205993926920375
0.208359462636706
0.210712707482998
0.2130825243818
0.215379299089973
0.217919311740289
0.220360648251808
0.222987050525893
0.225580414080471
0.228200518086446
0.230688131734542
0.232961128338776
0.234714796542825
0.235783104810467
0.235859402344623
0.234809048286153
0.232427648036457
0.228979131451451
0.224240524223683
0.217830856010472
0.209224409151982
0.197270192517773
0.180066651479512
0.153854151099037
0.116916544163696
0.0676408435136831
0.00152944401569259
-0.0726488139370802
-0.145934538772704
-0.155534193956617
-0.141055873079848
-0.10038983141068
-0.0818099745520814
-0.069656573199386
-0.0682472373419031
-0.0408268135271057
-0.0228797786792281
-0.0120440289313176
-0.00719180392004609
-0.003973114719465
-0.00204434850926422
-0.000540867262610167
0.000419270515579633
0.00110816588785885
0.0016118125877898
0.00196321845262453
0.0022265524385894
0.00243577818743948
0.00268661404202219
0.00300423451204963
0.00342266222971648
0.00395038621332493
0.00457545333360606
0.0052020922610365
0.00577770013223026
0.00628246215355035
0.00664721523557715
0.00681592079453661
0.00680187901670714
0.00600340301572686
0.00549696303980805
0.00555802095175675
0.00602925701264116
0.0069845064288167
0.00833653262639731
0.0100640425948039
0.0121213537592214
0.0144814460299492
0.0171151263830837
0.0199996611871792
0.0231132239706379
0.0264365579966479
0.0299511548772079
0.0336395395805656
0.0374845455643188
0.0414693733231911
0.0455772963389742
0.0497920075423034
0.0540975371240727
0.0584783737795111
0.0629195239726157
0.0674065896972068
0.0719258205495457
0.0764641692407849
0.0810093386572955
0.0855498240164805
0.0900749482527674
0.0945748872771404
0.0990406776307044
0.103464228950703
0.107838279570263
0.112156418537274
0.116412980269252
0.120603102866666
0.124722657817529
0.128768307379902
0.132737385492671
0.136627947074944
0.140438586853676
0.144168493240921
0.147817263915392
0.151384926290551
0.154871838080832
0.158278735904759
0.161606668475314
0.164857010901408
0.168031402985299
0.171131690971763
0.174159928677
0.177118279770004
0.180009159311422
0.18283498298673
0.185598572794388
0.18830253851536
0.190950265654997
0.193544534587641
0.19608968945195
0.198588881114377
0.201048143426643
0.203471773399578
0.205868053930755
0.208245341794209
0.210609979817027
0.21299178567965
0.215287707741968
0.217811009421233
0.22021735218863
0.222809812390871
0.225358489441455
0.227924869750745
0.2303413547114
0.23252450585313
0.234174040640013
0.235134206741068
0.235105971553592
0.233966367183556
0.23151747931741
0.227998404785334
0.223156502116938
0.21659986621851
0.207778375253
0.195508430675551
0.177881847648207
0.15126337863309
0.114042013682855
0.0647623885971787
-0.000469017930977478
-0.0722234784286694
-0.141997026166476
-0.150960233170395
-0.137868148537354
-0.0989538739454527
-0.0809944097241189
-0.0686392759500428
-0.0668333999653067
-0.0401564119953355
-0.0231886368440343
-0.0126266456481715
-0.00729748621325776
-0.00405872053663235
-0.00210419711085927
-0.00058130902012056
0.000401127718248879
0.00110606478630801
0.00162532265884703
0.00199082539436215
0.00226610958917928
0.0024811550241518
0.00272541879403218
0.00302592917862515
0.00341809129464954
0.00391340591215442
0.00450399103262476
0.00510243258766775
0.00565609625126323
0.00614436615964392
0.006500375928319
0.00666649715014337
0.00664928288844652
0.00591871540581052
0.00546744356869987
0.00553947154386815
0.00602073934734814
0.00697503749617606
0.00832172414648695
0.0100406014103216
0.0120873953700363
0.0144357478247053
0.0170569014811904
0.0199284059693682
0.023028622464394
0.0263384410188486
0.0298394593566869
0.0335143024995583
0.037345892054666
0.0413175328657899
0.0454125949827383
0.0496148537782474
0.0539084088419072
0.0582778120452691
0.0627081253822297
0.0671849998457177
0.0716947267654025
0.0762242932295139
0.0807614287705403
0.0852946472951219
0.0898132826187225
0.0943075142676606
0.0987683756019943
0.103187768794834
0.107558419814306
0.111873905231552
0.116128541360585
0.120317444655292
0.124436455836063
0.12848220311004
0.132451980556209
0.136343805890574
0.140156235465714
0.14388842696273
0.147539951169315
0.151110815197704
0.154601354506829
0.158012281319385
0.161344616879023
0.164599710868603
0.167779183251237
0.170884868252026
0.173918814628445
0.176883184664626
0.179780393847221
0.182612860386953
0.185383429396812
0.188094731096984
0.190750200434114
0.193352655283827
0.195906523214008
0.198414987302747
0.200884189364159
0.203318388913168
0.205725887972684
0.208114830403151
0.21049042098257
0.212882841657725
0.215178491054645
0.217686287771673
0.220053399771799
0.222606114176755
0.225102259146379
0.2276055753108
0.229940283751372
0.23202201472058
0.233555228635973
0.234395689552741
0.234252716470002
0.233014784910791
0.23048815725248
0.226885686059379
0.221924551774925
0.215200319842736
0.206136309267114
0.193515605179284
0.175426624306881
0.148364585523135
0.110832512728485
0.0615646548732199
-0.00269409799053362
-0.0719051954109454
-0.138125916291327
-0.146440542942334
-0.134752373916841
-0.0975673678573162
-0.0801788774007361
-0.0676100021507996
-0.0654640784417478
-0.0393955487463862
-0.0233787401518311
-0.0131867038940468
-0.00748414391990584
-0.00413803414937279
-0.00216542005427095
-0.000618373384361844
0.000390128410650979
0.00111386104245755
0.00165108896959106
0.0020315693113506
0.00231723091114947
0.00253427115067855
0.0027674068341968
0.00304722516780931
0.00341082562377648
0.00387242532355601
0.00442737753254782
0.00499624653440135
0.00552633593288969
0.00599613832490738
0.00634066265085451
0.00650171796280205
0.00647914398730915
0.00581520162582391
0.00541712290346691
0.00550127553127973
0.00599362163318529
0.00694704260921174
0.00828848438429312
0.00999847213173731
0.0120343913813105
0.0143705184621812
0.016978600404558
0.0198364829243399
0.0229227381169269
0.0262184086484714
0.029705210845483
0.0333658792185675
0.0371834310103246
0.0411412811462229
0.0452229017885447
0.0494121561652736
0.0536932170767552
0.0580507030895875
0.0624697345663462
0.0669360138372541
0.071435875896269
0.0759563438006426
0.080485175007504
0.0850109030623946
0.089522873289706
0.0940112690398621
0.0984671202307832
0.102882320768353
0.107249582834937
0.111562469108961
0.115815276219789
0.120003098305185
0.124121744279153
0.128167807183151
0.132138539417658
0.136031919730477
0.139846463292517
0.143581294636508
0.147235954555671
0.150810428196432
0.154305027781918
0.157720440513219
0.161057658883026
0.164318005678443
0.16750307882437
0.170614698696727
0.173654909305495
0.17662586790534
0.179529990079092
0.182369697559768
0.185147851953891
0.187867100261161
0.190530921557525
0.193142161348
0.195705318360811
0.198223578186351
0.200703169955959
0.203148229595821
0.205567052768692
0.207967312142504
0.210353241090425
0.212754712856726
0.215050404155624
0.217544232168602
0.219868656936776
0.222376404494003
0.224812651365307
0.22724400776115
0.229486878983267
0.231456424275758
0.23286212717124
0.233572319193595
0.233305200137233
0.231960103275376
0.229345066531995
0.225645756962535
0.220549160760068
0.213636883383138
0.204303787282379
0.191299516785485
0.172713393634672
0.145177180686052
0.107318608601099
0.0580953967736052
-0.00506769775928401
-0.0716180213627864
-0.134275743403244
-0.141940525834377
-0.131632781054469
-0.0961838233489554
-0.0793556350638736
-0.0665795453198368
-0.0641621236433504
-0.0385999564734411
-0.023460122883668
-0.0137036674743976
-0.00780315940965263
-0.00420788723103073
-0.0022286095713724
-0.000654119236061766
0.00038456758396956
0.00112913246842709
0.00168508426677034
0.00207951974094121
0.00237282391663059
0.00258861610570577
0.00280813777037592
0.00306591379270629
0.00340024017629441
0.00382767169973622
0.00434622668715782
0.00488425393630683
0.00538907989471789
0.00583840617745803
0.00616895210992869
0.00632332742004242
0.00629452143095357
0.00569602778610096
0.00534854831711762
0.00544543795687635
0.00594950120283448
0.00690195277248427
0.00823813601636228
0.00993891049791224
0.0119635635354495
0.0142869627281833
0.0168814268581709
0.019725104875814
0.0227968003614829
0.0260777163365475
0.02954969748684
0.0331955965445247
0.036998531763818
0.0409420331811168
0.0450096779796731
0.0491854210556045
0.0534535114904485
0.0577986372572204
0.0622059790762122
0.0666612922292821
0.0711509566737053
0.0756620325140134
0.0801823060266458
0.0847003310925576
0.0892054650562236
0.0936878952955126
0.0981386481162253
0.102549608469098
0.106913473426442
0.111223790453161
0.115474835043865
0.119661678759598
0.123780098187231
0.127826650667684
0.131798545670354
0.13569372177758
0.139510650541506
0.143248421238032
0.146906541608324
0.15048497332558
0.153984004690616
0.157404297611319
0.160746814800251
0.164012850839963
0.167203979264244
0.170322005463883
0.173368966807219
0.176347013880074
0.179258561670501
0.18210603287703
0.184892300223257
0.187620022716679
0.190292715675834
0.192913239409944
0.195486149203273
0.198014598605911
0.200504882051166
0.202960917003616
0.205390980122003
0.207802001191223
0.210197508065031
0.212606326469844
0.214902120237509
0.217383744509613
0.219662733683408
0.222120869367302
0.224490356501245
0.226841324254939
0.22898288599212
0.230830253511221
0.23209819196682
0.232668430358416
0.23226830458116
0.230807062839868
0.228092099049551
0.224281423783737
0.219032264740671
0.21191103090222
0.202282565569494
0.188863598008895
0.169748766362578
0.141710635895221
0.103508557222213
0.0543808299616364
-0.00754045893836334
-0.0713054682736336
-0.130422326904813
-0.137454492257315
-0.128490564788175
-0.0947785627726541
-0.0785128555796122
-0.0655495173285252
-0.0629230020873335
-0.0378260364494426
-0.0234493627800766
-0.0141358826314828
-0.00823808662122362
-0.00428203021665826
-0.00229060622846463
-0.000691337889454727
0.000381163644566333
0.00114801644040275
0.00172274670148897
0.0021298509350021
0.00242875649960499
0.00264155774696326
0.00284648862955927
0.00308181182631703
0.00338656849874178
0.00377950679244397
0.00426092955004771
0.00476682360617857
0.00524466681678397
0.00567159678248504
0.00598600205976754
0.00613271291709899
0.00609749565439519
0.00556317778281045
0.00526352101075738
0.0053734849955989
0.00588960222821639
0.00684087972514722
0.00817171233568892
0.00986290996302468
0.0118758921518476
0.0141860624583714
0.0167663772934315
0.0195952910892621
0.0226518583695306
0.0259174509488523
0.0293740499811532
0.0330046333608061
0.0367924245386843
0.0407210720302397
0.0447742588745548
0.0489360341804004
0.0531907257036335
0.0575230927496534
0.0619183776166478
0.0663623894761999
0.0708415539586782
0.0753429688145732
0.0798544496776044
0.0843645712291955
0.0888627032492344
0.0933390373644443
0.0977845962221752
0.102191255283098
0.10655169531674
0.110859447371415
0.115108764491619
0.119294695821831
0.123412985624648
0.127460155587719
0.131433371575254
0.135330531407679
0.139150060988275
0.14289101258135
0.146552857892743
0.150135533807108
0.153639304346012
0.157064806222713
0.160412971581283
0.163685065602101
0.166882635196814
0.170007470039605
0.173061597142677
0.176047159990815
0.178966572086162
0.181822252681773
0.18461708054663
0.187353720004881
0.190035713041939
0.192665919664573
0.195248935195644
0.197787842497794
0.200288978827041
0.202755941454144
0.205196990813756
0.207618033390244
0.210022245986689
0.212436609328769
0.214732273240532
0.217203525005172
0.219434945432052
0.221839395871341
0.224135814925922
0.226398500928016
0.228429942487728
0.230145988729451
0.231266940218473
0.231688498659541
0.231147059908887
0.229560508603625
0.226733253706163
0.222795643398703
0.217375996291557
0.210024531261717
0.200075003722316
0.18621183879833
0.16653689014071
0.137960555891156
0.0994181311706211
0.0504713694716848
-0.0100626955111214
-0.0709153679405825
-0.126544383065312
-0.132976866929341
-0.125314534707145
-0.0933347115726902
-0.0776383694346569
-0.0645174290132687
-0.0617305368476917
-0.0371184865582558
-0.0233317977145127
-0.0144580743654066
-0.00871918677615253
-0.00439002898310162
-0.00234458325246466
-0.000731481581680134
0.000377211228367931
0.00116753514850016
0.0017610460285472
0.00217993108344276
0.00248326813760591
0.00269227892348874
0.00288227234902504
0.00309501845474421
0.00337000923151104
0.00372815889855129
0.00417174642131174
0.00464425303720127
0.00509346355670465
0.00549626506946912
0.00579272586180106
0.00593125125162362
0.00588983777137619
0.00541824790068676
0.00516346324334458
0.0052865834564882
0.0058148270414819
0.00676463768436706
0.00808996045454891
0.00977118730468165
0.011772085440351
0.014068530869701
0.0166341819210298
0.0194477970853162
0.0224887014214039
0.0257384421418255
0.0291791451676712
0.0327939183852084
0.0365660931764831
0.0404794382382128
0.0445177415470948
0.0486651478887364
0.0529060652943678
0.057225325437769
0.0616082325844027
0.0660406499839203
0.0705090489943675
0.0750005650679746
0.079503043316792
0.0840050793995055
0.0884960558013708
0.0929661685976523
0.097406436830887
0.101808726076568
0.106165699728092
0.110470871307334
0.114718470187759
0.118903523656742
0.123021744154127
0.127069618315886
0.131044268292511
0.134943551159094
0.138765845564946
0.142510165387438
0.146175943391803
0.149763090571013
0.153271846672029
0.15670282368516
0.160056922589189
0.163335378189667
0.166539709965902
0.169671686988343
0.172733324877643
0.175726761461776
0.178654403815828
0.181518664687044
0.184322422524389
0.187068338878168
0.189759971544981
0.19240016310712
0.194993530766875
0.197543044756188
0.200055063133359
0.202532756424577
0.204984388773196
0.207414558053442
0.209826521102481
0.212244566216566
0.214539565839946
0.217002208759179
0.219184454890295
0.22153171552599
0.223749371260333
0.225916506349788
0.227829778305225
0.229406313983785
0.23037221129241
0.230637429257283
0.229946968123231
0.228225777712278
0.225273141472304
0.221192211261054
0.215583640667849
0.207980867038815
0.197685726827139
0.183348492355665
0.163071143796527
0.133935956907879