/*--------------------------------*- C++ -*----------------------------------*\
| =========                 |                                                 |
| \\      /  F ield         | OpenFOAM: The Open Source CFD Toolbox           |
|  \\    /   O peration     | Version:  2.4.0                                 |
|   \\  /    A nd           | Web:      www.OpenFOAM.org                      |
|    \\/     M anipulation  |                                                 |
\*---------------------------------------------------------------------------*/
FoamFile
{
    version     2.0;
    format      ascii;
    class       surfaceScalarField;
    location    "18000";
    object      phi;
}
// * * * * * * * * * * * * * * * * * * * * * * * * * * * * * * * * * * * * * //

dimensions      [0 3 -1 0 0 0 0];

internalField   nonuniform List<scalar> 
30950
(
5.31907692748378e-05
-7.93296885697651e-06
4.88717246656058e-05
4.31904426281428e-06
9.17919076811682e-06
3.96925342867257e-05
-1.7382843696955e-05
2.65620344635009e-05
-2.09315660930847e-05
3.54872239467209e-06
-1.40980499022324e-05
-6.83351620041186e-06
-9.79909687047155e-06
-4.29895302013612e-06
-7.39461344630709e-06
-2.40448342462066e-06
-6.00907214101236e-06
-1.38554130488094e-06
-4.97342116651228e-06
-1.03565097400653e-06
-4.40334545803001e-06
-5.70075709114796e-07
-4.24023348945734e-06
-1.63111967768015e-07
-4.4398058778228e-06
1.99572390414859e-07
-5.16987660639492e-06
7.30070725915035e-07
-6.51437487477983e-06
1.34449826878652e-06
-8.4841749938905e-06
1.96980011869768e-06
-1.08171459183379e-05
2.33297092507936e-06
-1.33766852173434e-05
2.55953930098952e-06
-1.59640557260147e-05
2.58737050599458e-06
-1.82718026413582e-05
2.30774691605202e-06
-1.99890537884939e-05
1.71725114706615e-06
-2.12540825298921e-05
1.26502874139137e-06
-2.20605002415024e-05
8.06417710817351e-07
-2.20980405701691e-05
3.75403290765232e-08
-2.13639684116293e-05
-7.34072158761331e-07
-1.98546763265842e-05
-1.50929208506911e-06
-1.83584287902991e-05
-1.49624753373657e-06
-2.60644944552386e-05
7.70606566333842e-06
-3.91174639996594e-05
1.30529695477536e-05
-4.99251218250988e-05
1.08076578238172e-05
-5.87481881910658e-05
8.82306636800511e-06
-6.60313864147048e-05
7.28319822051274e-06
-7.21304329523174e-05
6.09904653940801e-06
-7.72714167291442e-05
5.14098377402959e-06
-8.1639181164043e-05
4.36776443762266e-06
-8.53509299397343e-05
3.71174877430433e-06
-8.84965382597098e-05
3.14560832064725e-06
-9.11377163191488e-05
2.64117805649762e-06
-9.33218725290335e-05
2.18415621038322e-06
-9.50842007184283e-05
1.76232818812249e-06
-9.64533159973632e-05
1.36911527770258e-06
-9.74526106581665e-05
9.99294660710615e-07
-9.81011327736671e-05
6.48522111682471e-07
-9.84129322240974e-05
3.11799452446447e-07
-9.84033389183629e-05
-9.59330714983616e-09
-9.8089404179328e-05
-3.13934734916718e-07
-9.74879434848094e-05
-6.01460695072672e-07
-9.66166856869968e-05
-8.7125779607697e-07
-9.54936372407565e-05
-1.12304844929611e-06
-9.41368169762945e-05
-1.35682026172893e-06
-9.25642637435293e-05
-1.57255323339947e-06
-9.07939863967569e-05
-1.77027734081762e-06
-8.88438981569374e-05
-1.95008823346278e-06
-8.67317247600507e-05
-2.11217339038752e-06
-8.44748852829829e-05
-2.25683946358335e-06
-8.20903643529e-05
-2.38452092734834e-06
-7.95946168122898e-05
-2.49574751079004e-06
-7.70034513114341e-05
-2.59116550613262e-06
-7.43321284761944e-05
-2.67132281835596e-06
-7.1595272614298e-05
-2.73685588769096e-06
-6.88072051334513e-05
-2.78806746476067e-06
-6.59816669643127e-05
-2.82553818837868e-06
-6.31318076529762e-05
-2.84985931509259e-06
-6.02697662806996e-05
-2.86204139380188e-06
-5.74068032312622e-05
-2.86296306162796e-06
-5.45529230977127e-05
-2.85388013706478e-06
-5.17173243872437e-05
-2.83559872724492e-06
-4.89081615742078e-05
-2.80916280548933e-06
-4.61331906723599e-05
-2.774970917557e-06
-4.3399789868722e-05
-2.7334007872714e-06
-4.0715146275089e-05
-2.68464359994887e-06
-3.80859074808936e-05
-2.62923877571928e-06
-3.5518207982547e-05
-2.56769948653331e-06
-3.3017512171731e-05
-2.50069579963367e-06
-3.05888388751442e-05
-2.4286732558302e-06
-2.82371077597227e-05
-2.35173112677765e-06
-2.59671638052299e-05
-2.26994393338008e-06
-2.37841448049499e-05
-2.18301904052478e-06
-2.169306183354e-05
-2.09108296266524e-06
-1.96998446660932e-05
-1.99321718877393e-06
-1.78103089646084e-05
-1.88953569979391e-06
-1.60330226018498e-05
-1.77728637566798e-06
-1.43766162544478e-05
-1.65640634713197e-06
-1.28559874709446e-05
-1.52062879113126e-06
-1.14861125643139e-05
-1.36987491199691e-06
-1.02950627467024e-05
-1.1910498192061e-06
-9.31127325983517e-06
-9.83789496793125e-07
-8.58856315192623e-06
-7.22710101232716e-07
-8.18516662053847e-06
-4.03396537905966e-07
-8.19840623670233e-06
1.32396248141631e-08
-8.76180711739176e-06
5.63400874803663e-07
-1.02163363129365e-05
1.45452919663319e-06
-1.21302944200501e-05
1.91395810707549e-06
-1.17356158804266e-05
-3.94678527908793e-07
-1.07534859714626e-05
-9.821299210651e-07
-8.57291373657044e-06
-2.18057223764413e-06
-5.65751664064568e-06
-2.91539709069438e-06
-1.8364452959522e-06
-3.82107134417587e-06
2.88462957905379e-06
-4.72107487527786e-06
8.79420470724916e-06
-5.90957512777071e-06
1.54252940797616e-05
-6.63108937307106e-06
2.26305049793239e-05
-7.20521089960301e-06
2.99644872424259e-05
-7.33398226265254e-06
3.70216107291919e-05
-7.0571234918355e-06
4.27021550519697e-05
-5.68054431940954e-06
4.74209984090279e-05
-4.7188433545905e-06
5.16926670767586e-05
-4.27166867195944e-06
5.58555052857074e-05
-4.16283823227262e-06
6.05897257423662e-05
-4.73422043360996e-06
6.72012275689509e-05
-6.61150182478578e-06
7.76507338196189e-05
-1.04495062522944e-05
9.11504166507814e-05
-1.349968283091e-05
0.000108878466559998
-1.77280499090472e-05
0.000133988088312952
-2.51096217547914e-05
0.000163264078156659
-2.9275989843142e-05
0.000179071576505668
-1.5807498349532e-05
0.000141296180464572
3.77753960272059e-05
8.85968322051561e-05
5.26993482662023e-05
4.67152892543481e-05
4.18815428130216e-05
1.45748892308303e-06
0.000182318304910813
-1.13271178424701e-05
0.000164890695126778
2.17466537387273e-05
6.88285140392958e-05
0.000135754715718303
-2.25074722254663e-05
0.000117898020730206
-5.15448611738564e-05
3.25861113430346e-05
-3.91506813387007e-05
-1.92276960442457e-05
-2.77593313336948e-05
-1.56903030122998e-05
-2.14450913356708e-05
-8.71872342320939e-06
-1.77127379371139e-05
-5.11789470307479e-06
-1.51409624466697e-05
-3.60742646375093e-06
-1.37999225492023e-05
-1.9111156073468e-06
-1.36701282765046e-05
-2.92906239365316e-07
-1.46706855979956e-05
1.2001297141289e-06
-1.72219207116906e-05
3.28130583674753e-06
-2.15261101489768e-05
5.64868770654364e-06
-2.74788372991491e-05
7.92252726843205e-06
-3.44138950575252e-05
9.26802868420991e-06
-4.18955824190811e-05
1.00412266645776e-05
-4.94065444799681e-05
1.00983325641753e-05
-5.62698724474093e-05
9.17107488421392e-06
-6.19618424715834e-05
7.40922117116592e-06
-6.67399994363802e-05
6.04318570617124e-06
-7.05542031720577e-05
4.62062144571054e-06
-7.28415946196542e-05
2.32493177705715e-06
-7.35832604576396e-05
7.59367900371867e-09
-7.39814450646931e-05
-1.11110747797734e-06
-7.85078941386443e-05
3.03020154253069e-06
-0.000101584158941563
3.07823304649542e-05
-0.00013351311967429
4.49819302832568e-05
-0.000159657059865519
3.69515980137821e-05
-0.000180131891081919
2.92978975859778e-05
-0.000196599971657065
2.3751278793218e-05
-0.000210003932128855
1.95030070125325e-05
-0.000221005040857903
1.61420925009683e-05
-0.000230056150344687
1.34188739263992e-05
-0.000237465320216412
1.11209186449897e-05
-0.000243454466650695
9.13475475536222e-06
-0.000248184353727025
7.37106513065956e-06
-0.000251777628718825
5.77743120244414e-06
-0.000254329963577364
4.3146630456811e-06
-0.000255920167912595
2.95931961198315e-06
-0.000256615836816744
1.69496356476195e-06
-0.00025647673324946
5.09418541661662e-07
-0.000255549059553438
-6.15874242060996e-07
-0.00025387423672626
-1.68441613512033e-06
-0.000251502951122419
-2.68522033559005e-06
-0.000248487362804592
-3.61704901302905e-06
-0.000244875510598148
-4.48311000106752e-06
-0.000240714593257999
-5.28396579131807e-06
-0.000236050550188436
-6.02086332907029e-06
-0.00023092817682698
-6.69492659481132e-06
-0.000225391119532216
-7.30733463083789e-06
-0.000219481828103943
-7.85937965666138e-06
-0.000213241459331245
-8.35254215776785e-06
-0.000206709744260022
-8.788554524698e-06
-0.000199924856655647
-9.16940852878217e-06
-0.000192923344383262
-9.49725976180437e-06
-0.000185740093432775
-9.7744164595133e-06
-0.000178408542234002
-1.00028740054223e-05
-0.000170960728784722
-1.01846693547476e-05
-0.000163427652335048
-1.03211439036125e-05
-0.000155838881115083
-1.04143094220953e-05
-0.000148222388856645
-1.04663515769497e-05
-0.000140604047267266
-1.04803829989957e-05
-0.000133007729061815
-1.04592812763147e-05
-0.000125455008893489
-1.04066003084667e-05
-0.000117965782230643
-1.03248254023172e-05
-0.000110558263837049
-1.02166811941098e-05
-0.000103249933528776
-1.00833012368566e-05
-9.60576598081785e-05
-9.92567449599452e-06
-8.89977872164843e-05
-9.7445161954718e-06
-8.20856427337781e-05
-9.54138324428725e-06
-7.53355193702265e-05
-9.3178228404947e-06
-6.8760605271526e-05
-9.07560988882199e-06
-6.23735003081072e-05
-8.81577818856151e-06
-5.61868414403433e-05
-8.53839000202852e-06
-5.02135042963308e-05
-8.24328106215195e-06
-4.44670667195632e-05
-7.92945664744763e-06
-3.89616454071393e-05
-7.59650426938765e-06
-3.37132309561949e-05
-7.24163165629168e-06
-2.87394413684383e-05
-6.86332528698247e-06
-2.40631371960779e-05
-6.45359055841595e-06
-1.97111485304065e-05
-6.00839501319846e-06
-1.57218756228049e-05
-5.50990170528136e-06
-1.21414722281958e-05
-4.95027831136949e-06
-9.04080317558432e-06
-4.29171887374701e-06
-6.50550490400494e-06
-3.5190877766311e-06
-4.67328805674016e-06
-2.55492694378048e-06
-3.71152439563682e-06
-1.36516020439919e-06
-3.87541171481684e-06
1.77126950554525e-07
-5.56807955826229e-06
2.25606871329541e-06
-9.58636891531929e-06
5.47281855435824e-06
-1.3707578904719e-05
6.03516809620289e-06
-1.25882247230628e-05
-1.51403270034195e-06
-9.27972028753519e-06
-4.2906343665392e-06
-3.43194214399066e-06
-8.02835038335541e-06
4.23803597925372e-06
-1.05853752098741e-05
1.38452810227602e-05
-1.34283163875052e-05
2.5495485436845e-05
-1.63712792898176e-05
3.9521150453748e-05
-1.9935240144572e-05
5.51289090582251e-05
-2.22388479781524e-05
7.18918225130541e-05
-2.39681243546395e-05
8.90289373308191e-05
-2.44710970802925e-05
0.000105630751461506
-2.36589376267226e-05
0.000119820256204083
-1.98700490597371e-05
0.000131889086545951
-1.67876736950001e-05
0.000142646999271361
-1.50295814014252e-05
0.000152886943880763
-1.44027828616428e-05
0.000163950767894996
-1.57980444280195e-05
0.000178530054563533
-2.11907884915968e-05
0.000200466283867715
-3.23857355579658e-05
0.000229639613923261
-4.2673012886427e-05
0.000268433481697469
-5.6521917683285e-05
0.000321544321312556
-7.82204613717529e-05
0.000386084615960824
-9.38162844914056e-05
0.000434679126178596
-6.44020085679711e-05
0.000400119772874858
7.2334749319289e-05
0.000306876408514457
0.000145942712629518
0.000209243377058656
0.000139514574153684
3.17767101260986e-05
0.000321897946887087
2.17038200089279e-06
0.000291937159819972
5.17074406189328e-05
0.000162649668191784
0.000265042207573118
3.43737585633452e-06
0.000277110313061156
-7.05221229043684e-05
0.000106545610101422
-6.20564888353721e-05
-2.7693330127334e-05
-4.52233337264713e-05
-3.25234581058813e-05
-3.55129733041678e-05
-1.84290838458159e-05
-2.97490212306286e-05
-1.08818467759828e-05
-2.59715067345211e-05
-7.384940959564e-06
-2.4146808721256e-05
-3.73581362127145e-06
-2.43574394926019e-05
-8.22754671638501e-08
-2.65299507764035e-05
3.37264099998992e-06
-3.12736314588245e-05
8.02498651650385e-06
-3.88406382913425e-05
1.32156945394544e-05
-4.8916469807883e-05
1.79983587845225e-05
-6.04683165576037e-05
2.08198754345997e-05
-7.27525116855124e-05
2.23254217942722e-05
-8.49961897161039e-05
2.23420105923879e-05
-9.63544246213626e-05
2.05293097901442e-05
-0.00010633723430628
1.73920308560314e-05
-0.000115279109634503
1.49850610343801e-05
-0.000123135587346687
1.2477099157251e-05
-0.000129428065133139
8.61740956385664e-06
-0.00013456515462222
5.14468316793814e-06
-0.000141267994729106
5.59173262887481e-06
-0.000155653554153522
1.74157609684899e-05
-0.000188726240941211
6.38550172517722e-05
-0.000227794944394136
8.40506337379465e-05
-0.000258147702710148
6.73043563290082e-05
-0.00028071693062321
5.18671255000046e-05
-0.000298092942123006
4.11272902915495e-05
-0.000311602689461996
3.30127543523251e-05
-0.000322151120780445
2.66905238181747e-05
-0.000330319609262225
2.15873624093979e-05
-0.000336508309360778
1.73096187429636e-05
-0.000341000208504676
1.36266538995304e-05
-0.00034400322660829
1.03740832330302e-05
-0.000345675546971359
7.44975156575662e-06
-0.000346141436690858
4.78055276467515e-06
-0.000345501835485889
2.31971840655194e-06
-0.000343840469462181
3.35975409800686e-08
-0.000341237013423765
-2.094037498193e-06
-0.000337767112463218
-4.08577520191039e-06
-0.000333496647662981
-5.95488093591626e-06
-0.000328487475563572
-7.69439243359704e-06
-0.000322798780047958
-9.30574452891097e-06
-0.000316487199991214
-1.07946900573095e-05
-0.000309606981432617
-1.21641843510678e-05
-0.000302210230358831
-1.3417614402004e-05
-0.000294347117565616
-1.45580393883506e-05
-0.000286065991688037
-1.55884605065369e-05
-0.000277413421403574
-1.65119499390093e-05
-0.000268434178514694
-1.7331785044548e-05
-0.000259171183831594
-1.80515492033381e-05
-0.000249665459454303
-1.86751329052114e-05
-0.000239956134153217
-1.9206585052898e-05
-0.000230080512153029
-1.96500384615226e-05
-0.00022007429851662
-2.0009087636316e-05
-0.000209971737467387
-2.02872304126453e-05
-0.000199805839532067
-2.04870418335747e-05
-0.00018960803643016
-2.06121125303896e-05
-0.000179407945393662
-2.06664426147155e-05
-0.000169233014552711
-2.06553138471041e-05
-0.000159108564217853
-2.05837316151518e-05
-0.000149057713046006
-2.04574514815323e-05
-0.000139101897429189
-2.02806410245818e-05
-0.000129261101680964
-2.0057476939854e-05
-0.000119554677452313
-1.97897254707088e-05
-0.000110001515461839
-1.94788364810918e-05
-0.000100619976172517
-1.91260554869762e-05
-9.14274833072263e-05
-1.87338761035614e-05
-8.2440484648216e-05
-1.83048214956949e-05
-7.36745205130119e-05
-1.78415740203193e-05
-6.51448353657443e-05
-1.73454633222466e-05
-5.68670147502651e-05
-1.68162106213636e-05
-4.88573345537401e-05
-1.62529612516938e-05
-4.11330697394196e-05
-1.56537214754781e-05
-3.37128334633115e-05
-1.5016740542484e-05
-2.66174539098553e-05
-1.43370112170016e-05
-1.98710626739647e-05
-1.36097165222202e-05
-1.35034277257145e-05
-1.28212255110487e-05
-7.55165868943443e-06
-1.19601640493249e-05
-2.06477979759568e-06
-1.09967805996775e-05
2.89392449132089e-06
-9.90898260206937e-06
7.23533281979155e-06
-8.63312720269591e-06
1.08433594851352e-05
-7.12711444531397e-06
1.35446282689853e-05
-5.25619572505568e-06
1.51127139339934e-05
-2.93324587165204e-06
1.519882664359e-05
9.10142444003714e-08
1.3286920669801e-05
4.16797468482894e-06
8.39982827173071e-06
1.03599109524669e-05
3.86580255738643e-06
1.0569193811241e-05
5.2378154324083e-06
-2.88604556940426e-06
9.94307406837963e-06
-8.99589300846107e-06
1.7585342683001e-05
-1.56706189998028e-05
2.76462695386317e-05
-2.0646302062742e-05
4.00718755464032e-05
-2.58539223948429e-05
5.50955022363887e-05
-3.13949059798027e-05
7.29451204360804e-05
-3.77848583439352e-05
9.29377482552241e-05
-4.22314757974816e-05
0.000114491345118218
-4.55217212175769e-05
0.000136816305299289
-4.67960572611518e-05
0.000158858233438088
-4.57008657679726e-05
0.000178796508250777
-3.98083238703037e-05
0.000196505253901671
-3.44964193441096e-05
0.000212659755826039
-3.11840833280225e-05
0.000228133444564829
-2.98764716109813e-05
0.000244345559859433
-3.20101597117307e-05
0.000264294746174396
-4.11399748056739e-05
0.000292312511499033
-6.04035008834761e-05
0.000329264092682646
-7.96245940697761e-05
0.000377487027662106
-0.000104744852662578
0.000440727149236025
-0.000141460582946513
0.000517194127866472
-0.000170283263121298
0.000584246840821647
-0.000131454721523356
0.00057981667533652
7.67649147966688e-05
0.000500343628152031
0.00022541575981913
0.000391856915916814
0.000248001286321375
8.82381793511331e-05
0.000436282793496468
2.86661620115111e-05
0.000401574289906345
8.64159440892266e-05
0.000264902867631122
0.000401713629990484
5.58369985905244e-05
0.000486176182102914
-7.32486825000256e-05
0.000235631291192428
-8.14222631689626e-05
-1.95197494682563e-05
-6.18202534505315e-05
-5.21254678105927e-05
-4.92760234667233e-05
-3.09733138299617e-05
-4.19464043256076e-05
-1.82114659167165e-05
-3.73631241180243e-05
-1.19682211666483e-05
-3.54355489936573e-05
-5.66338874627245e-06
-3.63509166195595e-05
8.33092159794541e-07
-4.00830981160832e-05
7.10482249830455e-06
-4.73402760458428e-05
1.52821644440545e-05
-5.82999932578882e-05
2.41754117519098e-05
-7.23268888318766e-05
3.20252543581886e-05
-8.79906307351868e-05
3.64836173385551e-05
-0.000104215711272317
3.85505023327465e-05
-0.000120018194512158
3.81444938305666e-05
-0.000134536527732925
3.50476430114103e-05
-0.000147448564099949
3.03040672230332e-05
-0.000159193641955758
2.67301388901869e-05
-0.000169889398585612
2.31728557866965e-05
-0.000179482254392297
1.82102653707556e-05
-0.000188968556830227
1.46309856057773e-05
-0.000201430154281652
1.80533300803359e-05
-0.00022195066496392
3.79362716516895e-05
-0.000256107020321888
9.80113726092986e-05
-0.000291630516468822
0.000119574129885911
-0.000318012959577469
9.36867994372503e-05
-0.000337298521531681
7.11526874547306e-05
-0.000351910837782966
5.57396065420232e-05
-0.000363021225554514
4.41231421242837e-05
-0.000371429743639295
3.50990419022909e-05
-0.000377637002160864
2.77946209315743e-05
-0.000381993921214893
2.16665377966697e-05
-0.000384748326220524
1.63810589052643e-05
-0.000386085034705648
1.17107917174857e-05
-0.000386145472098427
7.51018895857769e-06
-0.00038504213998204
3.67722064797345e-06
-0.000382867882333977
1.45460758194881e-07
-0.000379707145677699
-3.12713911534456e-06
-0.000375633446406592
-6.16773677006164e-06
-0.00037071347748816
-9.00574411989085e-06
-0.000365014215836715
-1.16541425874758e-05
-0.000358595814081325
-1.41127941880113e-05
-0.000351514876863178
-1.6386681746965e-05
-0.000343826364745932
-1.84832021740553e-05
-0.000335583079338228
-2.04074697591263e-05
-0.00032683599688201
-2.21646968574753e-05
-0.000317634403872998
-2.37596323971026e-05
-0.000308025972519907
-2.51968918581253e-05
-0.000298056767676709
-2.64811547805488e-05
-0.000287771202740438
-2.76173499790701e-05
-0.000277211965871051
-2.86107860697602e-05
-0.000266419960323651
-2.94671384513867e-05
-0.000255434293297931
-3.01922520728803e-05
-0.000244292349310793
-3.07919824490052e-05
-0.000233029977027727
-3.12714599164566e-05
-0.000221681651580444
-3.16355558642521e-05
-0.000210280629339774
-3.18880640717782e-05
-0.000198858637140123
-3.2034104733535e-05
-0.000187445587394183
-3.20794923618534e-05
-0.00017606929114575
-3.2031610099692e-05
-0.000164755442854553
-3.1897579908879e-05
-0.000153527636713869
-3.1685257623245e-05
-0.000142407797676293
-3.14004800652211e-05
-0.000131416501317643
-3.10487732975094e-05
-0.000120573704842137
-3.06325219487196e-05
-0.000109898971227951
-3.01535700924259e-05
-9.94113446676142e-05
-2.96136820478877e-05
-8.9129003431655e-05
-2.9016217335916e-05
-7.90691992274903e-05
-2.83646256971855e-05
-6.92483732015531e-05
-2.76624000435059e-05
-5.96827742752291e-05
-2.69110622411543e-05
-5.03890872389312e-05
-2.61098976589646e-05
-4.13848535672247e-05
-2.52571949200663e-05
-3.26887015916163e-05
-2.43498734580006e-05
-2.43209010399491e-05
-2.33845410932276e-05
-1.63039849578858e-05
-2.23539273030403e-05
-8.66435535557277e-06
-2.12493461247527e-05
-1.433912027804e-06
-2.00516688414307e-05
5.34705944499038e-06
-1.87411355225193e-05
1.16267936819301e-05
-1.72765148383723e-05
1.73375700818719e-05
-1.56197590033497e-05
2.23874223273362e-05
-1.36829794488952e-05
2.66543094805139e-05
-1.13940016005489e-05
2.99623035836929e-05
-8.56418982743217e-06
3.20779593420137e-05
-5.04890163130544e-06
3.26391524888952e-05
-4.70178901141123e-07
3.11487696250079e-05
5.65835754746912e-06
2.66687783979947e-05
1.48399021794025e-05
2.25168674809112e-05
1.47211047282483e-05
2.38172818643061e-05
-4.1864599505422e-06
2.89367817593033e-05
-1.41153929060692e-05
3.7145813478573e-05
-2.38796507197501e-05
4.80720129841843e-05
-3.15725015673487e-05
6.15664284990401e-05
-3.93483379097536e-05
7.78760918292469e-05
-4.77045693102342e-05
9.71409509250454e-05
-5.70497174398013e-05
0.000118788556850843
-6.38790817235254e-05
0.000142178461108587
-6.89116254754454e-05
0.000166553138992486
-7.1170735145126e-05
0.000190866188527258
-7.00139153040406e-05
0.000213528616601589
-6.24707519441454e-05
0.000234229192442572
-5.51969951848449e-05
0.000253525251462498
-5.04801423494458e-05
0.000272252852445631
-4.86040726000061e-05
0.000291723218440575
-5.14805257007464e-05
0.000314737888186127
-6.41546445506149e-05
0.000345435742234769
-9.11013549326696e-05
0.000385295619783918
-0.00011948447161899
0.000436453689539413
-0.00015590292241818
0.000501707557154286
-0.000206714450562225
0.000579898200738542
-0.000248473906705731
0.000652349342489796
-0.000203905863274994
0.000669903384210799
5.92108730707222e-05
0.000618593260947129
0.000276725883083101
0.000526882917100353
0.000339711630123696
0.000152342522966463
0.000521701372876182
6.0494711431334e-05
0.000487402308823018
0.000120715008080201
0.000358726188193804
0.00053038975070864
0.000123964847433072
0.000720937522859287
-5.84211324421841e-05
0.000418017271065672
-9.54050274185684e-05
1.7464145493331e-05
-7.71917916094781e-05
-7.03387036051478e-05
-6.25258087944957e-05
-4.56392966449652e-05
-5.41221355363457e-05
-2.66151391741514e-05
-4.91756398219471e-05
-1.69147168810546e-05
-4.75343099308596e-05
-7.30471863786603e-06
-4.94837754327151e-05
2.78255766229046e-06
-5.5034537776496e-05
1.26555848434314e-05
-6.48391253437355e-05
2.50867520095078e-05
-7.88046900174462e-05
3.81409764258928e-05
-9.58232688343193e-05
4.90438331747406e-05
-0.000114063516088121
5.47238645928043e-05
-0.000132229030202092
5.67160164476193e-05
-0.000149372383666054
5.52878472933214e-05
-0.000164904987096125
5.05802464418611e-05
-0.000178854167550534
4.42532476774256e-05
-0.000191815098822117
3.96910701617581e-05
-0.000204073383214008
3.54311401782833e-05
-0.000215896942125414
3.00338242823372e-05
-0.000228481275560169
2.72153190404775e-05
-0.000244427380702861
3.3999435222997e-05
-0.000267285399999487
6.0794290948854e-05
-0.000299010197115089
0.000129736169724608
-0.000329375142856349
0.000149939075627781
-0.000351772054235009
0.000116083710815663
-0.000368424586019147
8.78052192391663e-05
-0.00038111603459505
6.84310551174486e-05
-0.000390724565818586
5.37316733480617e-05
-0.000397886863264359
4.22613393476732e-05
-0.000403006895305953
3.29146529735664e-05
-0.000406379981953377
2.50396244439254e-05
-0.00040821836091285
1.82194378648119e-05
-0.000408684451455483
1.21768822597224e-05
-0.000407904559370231
6.73029687342311e-06
-0.0004059813922226
1.75405350019611e-06
-0.000403003078088114
-2.83285337641937e-06
-0.000399047063641124
-7.08315356237978e-06
-0.000394182033458111
-1.10327669534989e-05
-0.000388474402248706
-1.47133753291429e-05
-0.000381988303009899
-1.81402418264876e-05
-0.000374782380478611
-2.13187167189833e-05
-0.000366912492658572
-2.42565695671529e-05
-0.000358433022408328
-2.6962672424257e-05
-0.00034939647520392
-2.94440169639393e-05
-0.000339853753816149
-3.17074182451077e-05
-0.000329854248049639
-3.37591381638086e-05
-0.000319445877278593
-3.56052626288169e-05
-0.000308675068786988
-3.72519632716685e-05
-0.000297586690617917
-3.87057281477014e-05
-0.000286223958363325
-3.99735183232474e-05
-0.000274628359345504
-4.10627374690892e-05
-0.000262839622036127
-4.19809893795865e-05
-0.000250895780727059
-4.27358237586345e-05
-0.000238833338679876
-4.33339019622299e-05
-0.000226687442684098
-4.37814518624351e-05
-0.000214492018486877
-4.40834882675456e-05
-0.000202279482564569
-4.42466406575361e-05
-0.000190080432394281
-4.42785425324714e-05
-0.000177923384096621
-4.41886583992397e-05
-0.000165834727268006
-4.39862367384915e-05
-0.000153838771532301
-4.36812133592672e-05
-0.000141958132720061
-4.32811188788228e-05
-0.000130214083491766
-4.27928225251498e-05
-0.000118627249076929
-4.22193563649175e-05
-0.000107217872017426
-4.15629471506024e-05
-9.6005677086186e-05
-4.08258769797992e-05
-8.50095531189248e-05
-4.00123413018026e-05
-7.42474823357412e-05
-3.91266964795492e-05
-6.37366716075961e-05
-3.81732107708572e-05
-5.34941663053551e-05
-3.71535675400856e-05
-4.35374808752541e-05
-3.60665830900898e-05
-3.38850531996154e-05
-3.49096225940351e-05
-2.45564550318395e-05
-3.36784716291758e-05
-1.55730208702562e-05
-3.23679752540038e-05
-6.95839223706014e-06
-3.09685559379208e-05
1.25974457147371e-06
-2.94674829330139e-05
9.0481734091003e-06
-2.78400976799982e-05
1.63650794063995e-05
-2.60580415196828e-05
2.31574126581421e-05
-2.40688480905758e-05
2.93558305296915e-05
-2.18181768751779e-05
3.48678735817082e-05
-1.91950225008894e-05
3.95707920202494e-05
-1.60969200396909e-05
4.32913039820532e-05
-1.22847017884795e-05
4.57999198329933e-05
-7.55751748264514e-06
4.6743051764734e-05
-1.41331083190014e-06
4.56656086076776e-05
6.73580070403328e-06
4.17368060244104e-05
1.87687047625165e-05
3.80425591601646e-05
1.84153515930807e-05
3.93544755868889e-05
-5.49837637516325e-06
4.46684810264238e-05
-1.94293983475659e-05
5.31928132203292e-05
-3.24039829145012e-05
6.46119912885564e-05
-4.29916796345216e-05
7.87432895025495e-05
-5.34796361235089e-05
9.5813188749565e-05
-6.47744685571732e-05
0.000115901951942097
-7.71384806321453e-05
0.000138479590150454
-8.64567199318967e-05
0.000162871428414923
-9.33034637398384e-05
0.000188320671907071
-9.66199786371678e-05
0.000213792310222897
-9.54855536206546e-05
0.000237858897456789
-8.65373391770815e-05
0.000260162383447904
-7.7500481175079e-05
0.000281205023138757
-7.15227820409719e-05
0.000301797443766699
-6.91964932305209e-05
0.000323196620525071
-7.28797024563307e-05
0.000348061632518169
-8.90196565434834e-05
0.000380322505938209
-0.000123362228352992
0.000421786119516556
-0.000160948085197142
0.00047452363906056
-0.000208640441962064
0.000540731052316702
-0.000272921863818577
0.000619204033761886
-0.000326946888150491
0.000692325899054122
-0.000277027728567246
0.000719250062847003
3.22867092747873e-05
0.000686539079455195
0.000309436866478342
0.000614048647403528
0.000412202062153571
0.000212861248083227
0.000587539517152933
9.27595141554334e-05
0.00055569629361694
0.000152558231567657
0.000441171064030075
0.000644914980357284
0.000199527576251759
0.000962581010638526
-2.81674048727197e-05
0.000645712252190929
-0.000102009204765438
9.13059453785314e-05
-9.0637541082263e-05
-8.17103672767713e-05
-7.49311435187133e-05
-6.13456942086103e-05
-6.59232109063347e-05
-3.56230717861895e-05
-6.10439372807986e-05
-2.17939905063315e-05
-6.0004594443913e-05
-8.34406147517867e-06
-6.31489221240373e-05
5.92688534330092e-06
-7.04504043828341e-05
1.99570671034057e-05
-8.23163835327571e-05
3.69527311581357e-05
-9.82354950318009e-05
5.40600879252452e-05
-0.000116671484628881
6.74798227716644e-05
-0.000135682268892774
7.37346488571372e-05
-0.000154115556044959
7.51493036004499e-05
-0.00017133330992213
7.25056011697919e-05
-0.0001870789779431
6.63259144631042e-05
-0.000201594901883011
5.87691716173462e-05
-0.000215478257091988
5.35744253707421e-05
-0.000229040049720422
4.89929328065362e-05
-0.000242651734327224
4.36455088892482e-05
-0.000257421516876862
4.19851015900856e-05
-0.000275286232645329
5.1864150991493e-05
-0.000298601551730814
8.41096100347113e-05
-0.000327600170458387
0.000158734788452046
-0.000354156595204148
0.000176495500373949
-0.000374035682346625
0.000135962797958014
-0.000389154708997073
0.000102924245889792
-0.000400771737643023
8.0048083763094e-05
-0.000409559408856751
6.25193445619277e-05
-0.000416041755670875
4.87436861615585e-05
-0.000420561308380146
3.74342056830477e-05
-0.0004233788917269
2.78572077905559e-05
-0.000424685767209693
1.95263133476252e-05
-0.000424631653679123
1.21227687288945e-05
-0.000423334836279232
5.43347947352449e-06
-0.000420893531638268
-6.87251140903353e-07
-0.000417392323774019
-6.33406124078634e-06
-0.000412905949208316
-1.15695281281094e-05
-0.000407502375383701
-1.64363407783817e-05
-0.000401247082103545
-2.09686686091144e-05
-0.000394202722701593
-2.51846012284111e-05
-0.000386427778222777
-2.90936611973697e-05
-0.000377978491226156
-3.27058565636564e-05
-0.000368909629080341
-3.60315345698141e-05
-0.000359274248095869
-3.90793979484384e-05
-0.000349123909623595
-4.18577567169942e-05
-0.000338508747824503
-4.4374299962638e-05
-0.000327477493910004
-4.66365165425919e-05
-0.000316077438497267
-4.86520186835708e-05
-0.0003043543508939
-5.04288157501792e-05
-0.000292352373043036
-5.1975496172769e-05
-0.000280113931398446
-5.33011791129279e-05
-0.000267679690741542
-5.44152300341528e-05
-0.000255088608860827
-5.53269056392317e-05
-0.000242378085399682
-5.60444254222888e-05
-0.000229584145633569
-5.65753916300907e-05
-0.00021674157846545
-5.69260554348833e-05
-0.000203883664404041
-5.71045547203156e-05
-0.000191041851917969
-5.71203550192205e-05
-0.000178245503792359
-5.69850065265797e-05
-0.000165521835204225
-5.67099053277479e-05
-0.000152895969058332
-5.63070795057231e-05
-0.000140391297681289
-5.57857902570815e-05
-0.000128029843013346
-5.51542771928498e-05
-0.000115832940576412
-5.44162588027023e-05
-0.000103821536868702
-5.35743508572397e-05
-9.2016057723729e-05
-5.26313561247853e-05
-8.04361056528325e-05
-5.1592293371217e-05
-6.91003851113819e-05
-5.0462417019758e-05
-5.80268397758877e-05
-4.92467561050411e-05
-4.72332630716567e-05
-4.79471442414475e-05
-3.6737937274752e-05
-4.65619088871971e-05
-2.6560106236398e-05
-4.50874536312845e-05