/*--------------------------------*- C++ -*----------------------------------*\
| =========                 |                                                 |
| \\      /  F ield         | OpenFOAM: The Open Source CFD Toolbox           |
|  \\    /   O peration     | Version:  2.4.0                                 |
|   \\  /    A nd           | Web:      www.OpenFOAM.org                      |
|    \\/     M anipulation  |                                                 |
\*---------------------------------------------------------------------------*/
FoamFile
{
    version     2.0;
    format      ascii;
    class       volScalarField;
    location    "18000";
    object      Pk;
}
// * * * * * * * * * * * * * * * * * * * * * * * * * * * * * * * * * * * * * //

dimensions      [0 2 -3 0 0 0 0];

internalField   nonuniform List<scalar> 
15600
(
0.000110521842213057
0.000168697508662619
2.97907665422564e-05
4.00489401030935e-09
3.21283015717534e-06
1.13563215946059e-06
1.86208171558833e-07
5.9196754773549e-08
1.98884041831668e-08
8.51059805084776e-09
3.74788237774743e-09
2.51906697862616e-09
2.25707349153162e-09
2.99459042665735e-09
5.71383827714137e-09
1.3481808961512e-08
3.16553692740113e-08
6.55340710220527e-08
1.19409117320864e-07
1.87356069580826e-07
2.49175490095814e-07
2.92877833479456e-07
3.24722004823608e-07
3.35088375342565e-07
3.18310846307043e-07
2.85732489361048e-07
2.25134750388129e-07
3.56327513391764e-07
1.45036656906336e-06
4.18761206374318e-06
8.03770459458685e-06
1.29496638311913e-05
1.84547628791455e-05
2.43421357210894e-05
3.0339243877903e-05
3.62742516362377e-05
4.19700601079682e-05
4.72920051810555e-05
5.21167922928035e-05
5.63477334122783e-05
5.99077202396196e-05
6.27455289297488e-05
6.48328246977465e-05
6.61571255432425e-05
6.66977996809199e-05
6.64592033099497e-05
6.55143938595486e-05
6.39277079948009e-05
6.17772120006185e-05
5.91483028143632e-05
5.6130286605937e-05
5.28130336491199e-05
4.92840238808732e-05
4.56258607619597e-05
4.19142701237702e-05
3.82166261225288e-05
3.45910356293619e-05
3.1085921378996e-05
2.77401534009102e-05
2.45835165886761e-05
2.16374829688162e-05
1.8916037365569e-05
1.64262745938081e-05
1.41692341141146e-05
1.21407991118528e-05
1.03327283663277e-05
8.73365154259981e-06
7.33008288506292e-06
6.10721278916246e-06
5.04971851779004e-06
4.14216748556477e-06
3.36933470458447e-06
2.71640900963437e-06
2.1692365904099e-06
1.7144969424954e-06
1.33989789976708e-06
1.03423069065913e-06
7.87395606441233e-07
5.90333050520008e-07
4.35026423172279e-07
3.14378849526143e-07
2.2225124677858e-07
1.53265699036529e-07
1.02879859020355e-07
6.71164108304849e-08
4.27030703438297e-08
2.67881528092008e-08
1.71136781114033e-08
1.18849897827002e-08
9.91736781833314e-09
1.10325565367864e-08
1.61237128399445e-08
3.66888686271378e-08
4.66439540571365e-08
3.72262480030151e-08
2.27681181873278e-08
5.04924356955897e-09
1.39130395750953e-09
3.1383916963356e-08
1.67652353776233e-07
5.84709526282583e-07
1.62735667828825e-06
3.86650171891536e-06
8.15926949046595e-06
1.48357771799611e-05
2.37765889166394e-05
3.60256501316161e-05
5.35648875247151e-05
8.08159355860482e-05
0.000128680924450778
0.000234668326822071
0.00047392481169931
0.000976386494755001
0.00215545876719405
0.00469943342368523
0.00920826003919811
0.00785559233418222
0.00234787473536262
0.000293650515730981
8.03193080063545e-05
0.00483993644026447
0.00388026882458962
0.0013538832422286
7.06101976133468e-05
4.05705367440883e-06
1.68132134332764e-06
4.25046335975382e-07
1.40259281507111e-07
7.21948625238004e-08
4.28219916239301e-08
2.9402289882926e-08
2.79507905458653e-08
3.43304950437448e-08
5.40478394808391e-08
1.0502712694094e-07
2.26988807827534e-07
4.87531950797896e-07
9.71745765378233e-07
1.78118571760186e-06
2.97853815712115e-06
4.55858742050123e-06
6.50344738337904e-06
8.87388052819822e-06
1.16269763986018e-05
1.46032554341314e-05
1.78958460280045e-05
2.31350902860797e-05
3.33360737142911e-05
6.13875865304079e-05
0.000108958271411604
0.000162476652705686
0.00021931266401894
0.000277279571951315
0.000334993129483766
0.000391204167771081
0.000445010027039801
0.000495543229021277
0.000542102391945871
0.000584063574328453
0.000620939450572222
0.000652374284729559
0.000678184870387429
0.000698313165777457
0.000712652216105421
0.000720649118081717
0.000721953121199345
0.000717283212849476
0.000706974819389626
0.000691478241764992
0.000671305797650322
0.000647016346128516
0.000619199376032893
0.000588459563268233
0.000555402365793355
0.000520620829293444
0.000484683959907068
0.000448127060529245
0.000411444583283248
0.000375085265013933
0.000339450373260931
0.000304892260485679
0.000271714389585186
0.00024016865949955
0.000210455595017993
0.000182724862011246
0.00015707909439393
0.000133577540334237
0.000112242297867167
9.30631647660064e-05
7.60037999317555e-05
6.10046859802085e-05
4.79858037717574e-05
3.68488736730733e-05
2.74806521067757e-05
1.97562771175633e-05
1.35429037838547e-05
8.70215236849196e-06
5.09206503422012e-06
2.56839127982885e-06
9.86262701028447e-07
2.00864712036607e-07
6.85340421668877e-08
4.46466170612279e-07
1.1918804652674e-06
2.16260734630539e-06
3.21245919817378e-06
4.19707410838093e-06
4.9644178573983e-06
5.37195747900255e-06
5.29268051058109e-06
4.65614128989096e-06
3.3769559233535e-06
1.88988272719674e-06
1.83631979741427e-06
2.77931477721924e-06
4.84699964938111e-06
8.86284558001733e-06
1.6162814787539e-05
2.91068146171713e-05
5.23826838699758e-05
9.12602643752932e-05
0.000152191719459076
0.000240080657935827
0.000358211261259235
0.000496167337730951
0.000647178850661903
0.000813391550925592
0.00100490574931877
0.00124536289414841
0.00158752227756861
0.00217463340286069
0.00316112823271819
0.0048234769158643
0.00780939885593447
0.0127397809748862
0.0191934420838616
0.0198134679816318
0.0150039722725866
0.00848859522503646
0.00604011548372209
0.0508060919725331
0.038136105321569
0.0234257704982774
0.00441631003947015
7.22184222452228e-06
1.3907298313086e-05
4.83169330918552e-06
1.66635046419335e-06
1.02330991785644e-06
6.90085758112772e-07
5.47892731499142e-07
5.74860913088681e-07
7.69653965116008e-07
1.26816508998854e-06
2.4530985838266e-06
5.05635866174455e-06
1.01792384655099e-05
1.90227533315088e-05
3.2708474035859e-05
5.17291156590496e-05
7.62006680928643e-05
0.000106252382567884
0.000142413873087148
0.000185506479322497
0.000237409221858359
0.000306341286623855
0.000419172021210153
0.000577098472258121
0.000784964643057479
0.000999786148249757
0.00117479802299368
0.00131265460387969
0.00142323738593468
0.00150925078790572
0.00157374134754346
0.00161851389719468
0.00164535234458331
0.00165577876867783
0.00165131597507597
0.00163343401868556
0.00160361818161263
0.0015633710408994
0.00151460378197704
0.00145975319710224
0.0013989642790637
0.00133212056959087
0.00126068503189172
0.00118581330787395
0.00110858014087238
0.00102997977260807
0.00095092106087806
0.000872228722152558
0.000794644177751045
0.000718827141055259
0.000645357873187318
0.000574740033267317
0.000507404098699575
0.000443711173882323
0.000383957136521416
0.000328376590361615
0.000277146755330455
0.000230390391473062
0.000188179311751764
0.000150537948554351
0.00011744793812164
8.88520238641874e-05
6.46583673477514e-05
4.47437598209097e-05
2.89568284608783e-05
1.71203729602393e-05
9.03373395009992e-06
4.47501944875265e-06
3.20355077304737e-06
4.96202488789379e-06
9.47788284937309e-06
1.64641809392652e-05
2.56203088184772e-05
3.66323756182969e-05
4.91735437353419e-05
6.29021692000582e-05
7.746082103834e-05
9.24688170256843e-05
0.000107521552993394
0.000122175690012547
0.000135948109774189
0.000148289881908946
0.00015859137377507
0.000166117103159681
0.000170060910830847
0.000169486244336646
0.000164064581419336
0.000150383156251529
0.000138362983247106
0.000143515393893653
0.000164402129895659
0.000203002812741773
0.000256821859861257
0.000336186083828633
0.000449999403918596
0.000612891219558673
0.000840205768685393
0.00115163936485388
0.00156424895838254
0.00209287855163193
0.00275439644659764
0.00358028356695999
0.0045800611400446
0.00579295211694386
0.00730494058015168
0.00927491310758392
0.0119742073216954
0.015647247986666
0.0208052825746213
0.0275890710439687
0.035082474355815
0.0409289851705249
0.0519590161214765
0.0705594051623676
0.0759768617664377
0.0666520695005048
0.0785716688401494
0.0607850537920198
0.0537352073005858
0.0265812040174447
0.000722963615402366
4.4413083510108e-05
2.52832571614887e-05
9.24187829357275e-06
6.23713752742604e-06
4.62514483828756e-06
4.05993142062284e-06
4.55240238184823e-06
6.39262282214474e-06
1.05978841968386e-05
1.96266611704521e-05
3.71117380618723e-05
6.6901760844615e-05
0.000110548301827886
0.000166714977099521
0.000231813705326445
0.000303679236558939
0.00038078440137165
0.000463606327512911
0.000559413927710802
0.000680821450124395
0.000846343282608374
0.00107490220470828
0.001232702554771
0.00120794228162994
0.00111329439812461
0.00103575666368599
0.000959872820180414
0.000892710780335119
0.00083035070115971
0.000771866983785018
0.000715986946184973
0.000662269393600681
0.000610400471652104
0.000560323059433969
0.000512053944992776
0.000465707866576206
0.000421589193416258
0.00038016421036447
0.00034088756378931
0.000303744333659627
0.00026873391369315
0.000235958792001795
0.000205468498299658
0.000177294054383971
0.000151453116642673
0.00012795036950865
0.000106779633922812
8.79253358370492e-05
7.13638267553638e-05
5.70645043695429e-05
4.49906143277107e-05
3.50998090620616e-05
2.73443010009737e-05
2.16710629188442e-05
1.80220733724183e-05
1.63349954532447e-05
1.65446595902034e-05
1.85834492359981e-05
2.23812832080009e-05
2.78647953345384e-05
3.49567700167273e-05
4.35746102375873e-05
5.36303513886943e-05
6.50295043764634e-05
7.76727087067777e-05
9.14567509427011e-05
0.000106275506748897
0.000122018564670775
0.000138570138585584
0.000155806694700459
0.000173596613636897
0.000191799992312847
0.000210269698205056
0.000228848565749614
0.000247370903046466
0.000265652192064564
0.000283501638210253
0.000300690286738138
0.000317006052118643
0.000332165135944436
0.000345945597948929
0.000358027771332679
0.000368173726150296
0.000376167659248131
0.000381893028275776
0.000386848886551014
0.000388505860635594
0.000409178026096362
0.000426351751759441
0.000459148082892672
0.000520170514105353
0.000598298396645584
0.000706911318140336
0.000849405587455588
0.00102438668114352
0.00123642273683647
0.00149267871411723
0.00180216494221955
0.00217255983376404
0.00266626202643691
0.00337046223413412
0.0043183293439846
0.00555709022929123
0.00715553283142996
0.00915704852844195
0.0113447313348487
0.0135085823156508
0.0157039905130169
0.0170230250760181
0.0163765998744402
0.0133716720887556
0.0178697545959741
0.0428500592910271
0.0791301385285949
0.091587058396295
0.0630985421460979
0.0514807796977656
0.0540494365248599
0.0476674323817646
0.00676408036235379
3.16721789171305e-05
6.87290515837725e-05
2.81962525549642e-05
2.09497380561628e-05
1.72738910716696e-05
1.66068837414453e-05
1.95294955999261e-05
2.77502065997606e-05
4.4234805366196e-05
7.4400114963723e-05
0.000121786925595389
0.000184479050119651
0.000252617266742541
0.000315561870744565
0.000369638301159235
0.000420386881880329
0.000472624033406632
0.00053081903964371
0.000607229264279807
0.000713501644268522
0.000851238387914614
0.000993374009843268
0.00096499508210987
0.000722131039200373
0.000511666655223124
0.000389274290118808
0.000301900156286602
0.00023974225753287
0.000192456993018183
0.000155350892303257
0.000125357222394738
0.000100751506028573
8.03971024550405e-05
6.35707151425182e-05
4.97681333454477e-05
3.86420113199967e-05
2.99339384939352e-05
2.33176988733874e-05
1.86512127224642e-05
1.57245570490799e-05
1.43854989762022e-05
1.451106691328e-05
1.59774911569533e-05
1.86725157537212e-05
2.24919095434495e-05
2.73393748259859e-05
3.31261848502918e-05
3.97710043971899e-05
4.71996796619417e-05
5.53449322642731e-05
6.41458328703926e-05
7.35471023336845e-05
8.34983018927823e-05
9.39529420497133e-05
0.000104868241226562
0.000116204637518603
0.000127927255263233
0.000140005482418132
0.000152411978943767
0.000165120074993287
0.000178102490348461
0.00019132868394457
0.000204765125048954
0.000218373782871933
0.000232114307466888
0.000245945768397514
0.00025982790772423
0.00027371875573947
0.000287572844986189
0.000301337816967635
0.000314954719964876
0.000328358051551257
0.000341479787037857
0.000354244056133469
0.000366575475690581
0.000378379259844774
0.000389574231714803
0.000400039090775568
0.000409715921119445
0.000418475500346158
0.000426338257672864
0.000433274284799575
0.000439475705600904
0.000445388924985341
0.00045184520118255
0.000462317277590582
0.000476918653932099
0.000522883572290567
0.000554109933078281
0.000591445407445579
0.000654734465492675
0.000732901596885786
0.000837211007241905
0.000967815361385481
0.00111490757511719
0.00127377733828168
0.00144144284221503
0.00161650130403443
0.00179518169672398
0.00202732904857645
0.00239394710245498
0.00292273241165324
0.00363916494144443
0.00457531201023375
0.00571257506144966
0.00674884686381121
0.00740159355644617
0.00774195308684891
0.00729604532594898
0.0057233363690686
0.00290909978784913
0.00161038268359836
0.0105458236668448
0.0396869951438442
0.0631052168126958
0.0423675844502886
0.0371582991090696
0.0426963208443722
0.0561547764285657
0.0193863697278666
0.000242551161536004
9.8327400502088e-05
5.45821411925e-05
4.45934263829098e-05
4.12210046082127e-05
4.28292833692283e-05
5.14517102255099e-05
7.10029266736923e-05
0.000103974116135779
0.000151845992034765
0.000207047099387545
0.000256663307160113
0.000289910034645717
0.000307187221217185
0.000319233624257197
0.00033863212298369
0.000368970672792099
0.000410351639573549
0.000469446318555006
0.000548180660161085
0.00063300017149182
0.00068416056298505
0.000572914184111707
0.000344451881475943
0.000193461280173324
0.000116844614207538
6.91728262350771e-05
3.97831127191714e-05
2.11816425787329e-05
9.67785236938539e-06
3.1659769104344e-06
3.93449062206222e-07
5.71853221791943e-07
3.17084666418835e-06
7.80922649625111e-06
1.41840818293255e-05
2.20755407000194e-05
3.12810138274168e-05
4.15919626255623e-05
5.28671718495266e-05
6.49740430902058e-05
7.77647957495185e-05
9.11082144044501e-05
0.000104883874558429
0.000118980698981328
0.000133297597383083
0.000147743297528705
0.000162236533709609
0.000176706075492948
0.000191090600619541
0.000205338285404121
0.000219406142851841
0.000233259279331454
0.00024686966472407
0.000260215686801121
0.000273280612357512
0.000286054361775086
0.000298533578305171
0.000310720275279678
0.000322618270082532
0.000334231482018469
0.000345560448477239
0.00035660273372834
0.000367350666930199
0.000377793347086983
0.000387919940691873
0.000397722050710647
0.00040719087816754
0.000416314917278373
0.000425075115014505
0.000433444909826351
0.000441390547859174
0.000448878234889551
0.000455866860638171
0.000462321388204251
0.000468185044116586
0.000473426788468472
0.000477976099619262
0.000481845098762056
0.000484987372478936
0.00048753797338285
0.000489645653802508
0.000491730738741806
0.000494679804414535
0.000499880913384464
0.000512223555890668
0.000532466125311901
0.000589335092218891
0.000634312802337475
0.000681081899705568
0.000751287918827661
0.000836554542674716
0.000946955738405604
0.00108263915972067
0.00123156857136577
0.00138337281762368
0.00152868788293563
0.0016595672812065
0.00176579197462059
0.00188627677184826
0.00209884539044471
0.00243151207326586
0.00290103805840245
0.00352874226274004
0.0042985685478427
0.00497898036142918
0.00534651062770258
0.0055564518610687
0.00542800356007608
0.00483964761970182
0.00330947231794633
0.000522018380493228
0.00157601564662995
0.0160053171747412
0.0358094456580602
0.0271354732953219
0.0256214056522465
0.0308931937955403
0.0548965799544119
0.032137929903836
0.00204647902353139
5.53071809865947e-05
7.02222090494548e-05
6.29425758771483e-05
6.53354580057302e-05
7.26024217391317e-05
8.72959686396255e-05
0.000114048608140773
0.000150480156727579
0.000189600042514044
0.000217750276032516
0.00022797106518158
0.000223919218816165
0.000215661163053475
0.000214410173459714
0.000227411371800019
0.000253440068468175
0.0002891888681466
0.000336809779615592
0.000392640361981751
0.000439498484739695
0.000447816876669522
0.000340706569177464
0.00018366000192512
9.20087810868512e-05
5.0168886359171e-05
2.92347176899001e-05
2.03970144647072e-05
1.9217977766116e-05
2.29330723558404e-05
3.01997468793195e-05
4.01041899171616e-05
5.20972857347176e-05
6.57738796068417e-05
8.08327583289985e-05
9.70313058206171e-05
0.000114191403479632
0.000132108326828152
0.000150591926339642
0.000169521118708064
0.000188754877296276
0.000208132355831411
0.000227514116119982
0.000246772159576848
0.000265789968683578
0.00028446326872379
0.000302699954546806
0.000320420490867067
0.000337558076769601
0.000354058648463845
0.000369880539915088
0.000384993843688203
0.000399379636945634
0.000413028229542216
0.000425938229205462
0.000438113461201028
0.000449565264275542
0.000460313659585872
0.000470385808787586
0.000479811509581935
0.000488621127702258
0.000496841018763543
0.000504494062226311
0.000511596039906092
0.000518156873232921
0.000524186076629975
0.00052969696629386
0.000534703648352118
0.000539218273092926
0.000543244399813613
0.00054677596252587
0.000549797915351536
0.000552296726687932
0.000554251606074005
0.000555651305893604
0.000556463646191
0.000556689475392529
0.000556288981383996
0.000555318039600045
0.000553795921202639
0.000551936123120244
0.000550033124720461
0.000548674383410897
0.000549125016650877
0.000553178174718645
0.000566935990500174
0.00059079252931842
0.00065286109595758
0.000709832763662303
0.000768768256206305
0.00084982439226268
0.000947842198785937
0.00107244141309229
0.00122477062731161
0.00139260506922207
0.00156158078741299
0.00171692915203734
0.00184550425946025
0.0019331072613706
0.00201327511074517
0.00216627782618061
0.00242630059066892
0.00281168104172647
0.00334785184314979
0.00404094524291852
0.00473940401142526
0.00527940363807773
0.00586641531385779
0.00642473502028751
0.00679995430667376
0.00601697633774075
0.00232937589587266
0.000462588704917609
0.00693743656215839
0.0200275084873126
0.0179410174103864
0.0179238978147966
0.0220147117547545
0.049156211553933
0.0415325722720572
0.00643759639228688
9.93261917229563e-06
6.24151921201377e-05
6.2280148947247e-05
7.18340176976568e-05
8.52841096656602e-05
0.000102376510826687
0.000126794580466111
0.000152473186380343
0.000169930358400323
0.000170797809256534
0.000158792716597652
0.000143553854559678
0.000132881370769482
0.000132583431985833
0.000145848729763793
0.000170345687656836
0.000202009052006598
0.000240600130358008
0.000280660143038702
0.000307121897791477
0.000303666404207077
0.000226310307448256
0.000128977184940975
7.69165645595364e-05
5.86871163940543e-05
5.63358722501307e-05
6.20406606711548e-05
7.34137268520536e-05
8.81929439669468e-05
0.000105536522902716
0.000124728034114529
0.000145371812836702
0.000167140454204271
0.00018979061829226
0.000213132766585632
0.000236999550619052
0.000261199225951417
0.000285555442628186
0.000309943364176486
0.000334207171599757
0.000358176294333379
0.000381701575226614
0.000404646985648172
0.000426890211291705
0.000448323349249337
0.000468852886187147
0.000488400284888919
0.000506902298537311
0.000524311158363874
0.00054059435351428
0.000555734094852908
0.000569726522608474
0.000582579336088482
0.000594310181147617
0.000604941485239422
0.000614503468304068
0.000623037014248065
0.000630592148938414
0.000637222557898433
0.000642983253468134
0.000647924627314734
0.000652093164909126
0.000655525877437061
0.000658250075578222
0.000660291461296581
0.000661680898920357
0.000662451499366669
0.000662635523208463
0.000662255676543244
0.000661322202981309
0.000659833923581894
0.000657792297411714
0.000655190831801868
0.000652038034063794
0.000648322709164454
0.000644067841297195
0.000639262737247133
0.000633998361605307
0.000628353865251188
0.000622609969007074
0.000617201686168045
0.000612865550367137
0.000611230508580619
0.000614418389180314
0.000629578280870183
0.000656223496096934
0.000720814688739823
0.000788512926563449
0.000861291335312154
0.000956046051315386
0.00107074406841535
0.00121495624960412
0.00139108941514056
0.00158744291674372
0.00178638940686723
0.00196791664182277
0.00211410758609682
0.00220827131274091
0.00228246888881095
0.00242237691507179
0.0026708639422391
0.00305310926215268
0.00360589021554965
0.00436395200600551
0.0052462281499456
0.00613335743600609
0.00725249686182495
0.00851516796969396
0.00959509427566537
0.00903681431849195
0.00439861396593457
0.000925786494995822
0.00377632381497298
0.012226784374151
0.0124822785852858
0.0129315197504811
0.0159578210384251
0.0418843309096462
0.047755996316081
0.0121266198786715
0.000183908386686669
3.96985626032636e-05
4.83021300591608e-05
5.94640408401177e-05
7.56817823112264e-05
9.16023040880815e-05
0.000109224470037623
0.000122426294461148
0.000124659749920694
0.000114317024784647
9.88707001098949e-05
8.57628548234341e-05
7.86151837024657e-05
8.0195241382543e-05
9.27139565535572e-05
0.000114559711248408
0.00014181552390059
0.000173016993840734
0.000202790162392056
0.000219604318564947
0.000217180231738238
0.000171350561009653
0.000119952573536739
9.74009983784948e-05
9.79491354167663e-05
0.000110614685777353
0.000128269145276795
0.000150080017820884
0.00017412211129176
0.000199950829789629
0.000226990525372746
0.000254966552729339
0.000283611850990934
0.000312736080827506
0.000342184030542015
0.000371800348593239
0.00040140170678753
0.000430816079911915
0.000459903953611166
0.000488491978786497
0.000516397786700484
0.000543459376992653
0.000569530395638039
0.000594480643071855
0.000618196646127913
0.000640581640354192
0.000661556334147378
0.000681059386742352
0.000699047828315452
0.000715496999188364
0.000730400197194451
0.00074376789864415
0.000755624687031077
0.000766006785913389
0.00077495415831114
0.000782514373814991
0.000788747802546801
0.000793726332306506
0.000797526830094152
0.000800228672362992
0.000801906161412885
0.000802629533117294
0.000802456859727425
0.00080143157375532
0.000799593651339602
0.000796989698945262
0.000793670406226323
0.000789687203402395
0.000785081237366523
0.000779877797529372
0.000774087822823919
0.000767725046166933
0.000760796729950425
0.00075333037022349
0.000745333103153914
0.000736849610152444
0.000727898497592364
0.000718603633283894
0.00070910589014097
0.000699752294407176
0.000691121564744999
0.00068409438628121
0.000680660872105022
0.000683215161622606
0.000699803162435075
0.000728761568683062
0.000794270512839266
0.000871647400046109
0.000959293867861486
0.0010698241523301
0.00120401066076056
0.00137154329593219
0.00157604706847384
0.00180655352335413
0.00204248225382604
0.00225854799075651
0.00243233660579961
0.00254601427011335
0.00263286399904527
0.00278503132308815
0.0030546328756559
0.00347620419481545
0.00410125823292768
0.00499498196601767
0.00613784669267227
0.00744217669090926
0.00912794082350309
0.0110205870871254
0.0125276970114372
0.0118265357074469
0.00619555493675127
0.00162941931230695
0.00261309645439339
0.00824831399588043
0.00917434738948029
0.00968956985575397
0.0119729722837052
0.0347351131466954
0.0509982988087429
0.0192766066690358
0.000857319349033542
1.48747629568484e-05
3.39511777248817e-05
4.04193662681473e-05
5.48823403159031e-05
6.78366126238498e-05
7.93223767339538e-05
8.49674468423692e-05
8.19151587808593e-05
7.16454861625734e-05
6.01316439348443e-05
5.13432459366245e-05
4.67977421958912e-05
4.83940466294095e-05
5.85486651321897e-05
7.67520083540824e-05
9.95343169696474e-05
0.000124864027792732
0.000148236247365565
0.000161508621593435
0.000165088781297717
0.000147833304007162
0.000133064932410135
0.000134486393286923
0.000151334037410189
0.000177254218480106
0.000205709241416268
0.000237080341407124
0.000269681806021409
0.000303402823999577
0.000337775107635655
0.000372628155105398
0.000407746424750845
0.000442990140957228
0.000478227480177856
0.000513314700730541
0.000548073049268144
0.000582328048521887
0.000615921780042297
0.00064866218500744
0.000680352427322985
0.000710815472927429
0.000739893022534954
0.000767445556737999
0.000793352726985675
0.000817513283646169
0.00083984601375017
0.000860290396607723
0.000878807304700403
0.000895379145767879
0.000910009790937479
0.000922723872975479
0.000933562964609731
0.000942582096823897
0.000949838367202138
0.000955395769740796
0.000959333386941571
0.000961744586251585
0.000962729328457584
0.000962391719882458
0.000960830542222992
0.00095814072947508
0.000954402141462059
0.000949673952966557
0.000944009385273903
0.000937469917474301
0.000930123385248485
0.000922040515762449
0.000913281331375251
0.000903886133380636
0.000893876980242571
0.000883279466915882
0.000872116236768256
0.000860431301117531
0.000848252510190383
0.00083564676247966
0.00082266403176385
0.000809462687294102
0.000796249357562054
0.000783440458740139
0.000771764371842405
0.000762245410124798
0.00075723369338604
0.000759345266945336
0.000777382058495892
0.000808325158453436
0.000873634133687295
0.000959671650948558
0.00106272234568032
0.00119058417537271
0.00134638526813971
0.00153996838308247
0.00177600682920988
0.00204426183058854
0.0023213105944067
0.00257658213326433
0.00278355699378627
0.00292467681804501
0.00303645561286784
0.00321763679507081
0.0035293037109162
0.00401662195982433
0.0047475646227913
0.00581819857372895
0.0072640997311537
0.00901741211071995
0.0112796462885618
0.0137038527784854
0.0153841537096177
0.0142720490349214
0.0076547848926434
0.00225938271262416
0.00219775275879521
0.00609889217972528
0.00710751026198486
0.0075584556027443
0.00939446268997287
0.0284052648424528
0.0516735441565487
0.0270173432962104
0.00234552658913852
1.00812062718961e-06
2.44761105036172e-05
2.40403200272718e-05
3.37525512455666e-05
4.33917608398185e-05
5.10543277133865e-05
5.40783483856167e-05
5.17876030090842e-05
4.57812413970532e-05
3.92039195717718e-05
3.36806144625841e-05
3.00903582405748e-05
3.02833402296844e-05
3.71392971356367e-05
5.12672163923178e-05
6.9823313846176e-05
9.06132248037325e-05
0.000110241475254364
0.000123398421364846
0.000134662505921226
0.000142158108755736
0.000157448412995136
0.000179607392827089
0.000211556535275251
0.000249989572432993
0.000288903889078149
0.000329634471954475
0.000370680455717146
0.000412225102845922
0.000453889810236802
0.000495601233807667
0.000537192689527371
0.000578572337181897
0.000619627553958158
0.000660225449699131
0.000700189527681757
0.000739339870826462
0.0007774995410309
0.000814456761750497
0.000849997763900782
0.000883929026647494
0.000916079290978136
0.00094629889484248
0.000974459905057218
0.00100045592645447
0.00102420320917282
0.00104564149211421
0.00106473502959309
0.00108147297772005
0.00109586971303539
0.00110796429850215
0.00111781589748325
0.00112549913028157
0.00113108831353743
0.00113466333128912
0.0011363215739007
0.0011361778710168
0.00113435552460835
0.00113098407089043
0.00112618768456253
0.00112008737833492
0.00111278600618227
0.00110435852320985
0.0010948707504404
0.00108439859767042
0.00107302708223867
0.00106084688417341
0.00104793795073545
0.0010343558377313
0.00102013340461182
0.00100531001104581
0.000989922619233419
0.000974032815618635
0.000957691734861295
0.000940990157035929
0.000924012582447934
0.000906955095270911
0.000890095112932651
0.000873923530712334
0.000859325063578638
0.000847468377139988
0.000841060381762317
0.000842890254548727
0.000862382648537998
0.00089506564094122
0.000959388736325731
0.00105310263097603
0.00117171599452808
0.0013180631450609
0.00149711136124687
0.00171880750831172
0.00198862590729259
0.00229693063279423
0.00261744965702546
0.002914404784046
0.00315778291936679
0.00333183922223274
0.00347785343384843
0.00370072847036729
0.00406979992369334
0.00464148586986436
0.00550104172487458
0.00677552164637028
0.00855033760416403
0.0107817720993758
0.0135986522095829
0.0164756960785354
0.0180574223536777
0.0163529659191287
0.00880378746449341
0.00274850142942816
0.00206272006416256
0.00487063130666518
0.00576972200032366
0.00613054951450003
0.00772926570965545
0.0231577070932176
0.0502090130505193
0.0343619484381161
0.00507363501266149
3.58917234044141e-05
1.84443667743412e-05
1.3429354642702e-05
1.72527598800834e-05
2.40084392269948e-05
2.99635110519739e-05
3.34331350592812e-05
3.44128741783786e-05
3.34226156562758e-05
3.10640435937477e-05
2.75746233962746e-05
2.37993241653136e-05
2.17931811724552e-05
2.4919728998494e-05
3.48596642696419e-05
4.95281335619589e-05
6.6817050730648e-05
8.44202037176534e-05
9.93034219731431e-05
0.000118484894677058
0.000147143913738199
0.000187863722529261
0.000228840749744327
0.000275371747582525
0.000326116516504197
0.000375579317974442
0.000425835704576747
0.0004755368335649
0.000525129328499248
0.000574313564971197
0.00062310994693688
0.000671400062402081
0.000719136900888205
0.00076622633117256
0.000812546118530658
0.000857921193565649
0.000902165471915067
0.000945083617498012
0.000986443056866771
0.00102601099872732
0.0010635765327675
0.00109895493277973
0.00113198609249423
0.00116253428644225
0.00119048778991265
0.00121576014931602
0.00123829121931273
0.00125804855627523
0.00127502808673219
0.00128925493938624
0.00130078319574992
0.00130969056986078
0.00131607247140983
0.00132002085325436
0.0013216311817168
0.00132101896578043
0.00131832069777126
0.00131368345243965
0.00130726307456656
0.00129921022427131
0.00128967364999535
0.00127878071533487
0.00126662240486239
0.00125327666095798
0.00123883360747313
0.0012233957511958
0.00120707474139687
0.00118997180383003
0.00117215772373772
0.00115367843464911
0.00113458646530151
0.00111493355318903
0.00109480100211187
0.00107426580027851
0.00105344529734721
0.0010324620954402
0.0010115541759338
0.000991075144459848
0.000971596406472747
0.000954165392239276
0.00094009560011675
0.000932443870302377
0.000934123931363992
0.000955056058817532
0.00098927984126917
0.00105208390345369
0.001152561372695
0.0012866113502741
0.00145227034724377