/*--------------------------------*- C++ -*----------------------------------*\
| =========                 |                                                 |
| \\      /  F ield         | OpenFOAM: The Open Source CFD Toolbox           |
|  \\    /   O peration     | Version:  2.4.0                                 |
|   \\  /    A nd           | Web:      www.OpenFOAM.org                      |
|    \\/     M anipulation  |                                                 |
\*---------------------------------------------------------------------------*/
FoamFile
{
    version     2.0;
    format      ascii;
    class       volScalarField;
    location    "18000";
    object      PkDeficit;
}
// * * * * * * * * * * * * * * * * * * * * * * * * * * * * * * * * * * * * * //

dimensions      [0 2 -3 0 0 0 0];

internalField   nonuniform List<scalar> 
15600
(
6.5247666964778e-06
9.95556885028387e-06
1.75853668345983e-06
2.30618875792253e-10
1.89448356673451e-07
6.69801468219694e-08
1.09844537943169e-08
3.49208845542187e-09
1.17332997084761e-09
5.0209902302047e-10
2.21123567666006e-10
1.48626875191434e-10
1.33171212420472e-10
1.76688322961857e-10
3.37134730268151e-10
7.95478104033811e-10
1.86778581473276e-09
3.86674506078686e-09
7.04552731771386e-09
1.10546514297733e-08
1.47024898380079e-08
1.72820091627813e-08
1.91622666055402e-08
1.97752358169248e-08
1.87862359510542e-08
1.68650470438073e-08
1.32871408688955e-08
2.10315072421688e-08
8.56002293056617e-08
2.47123973653704e-07
4.74325837600435e-07
7.64159826617477e-07
1.08899240738526e-06
1.43636567488146e-06
1.79020830947194e-06
2.14037658820717e-06
2.47642552944494e-06
2.79040914141054e-06
3.07505540466869e-06
3.32466054666682e-06
3.53467707050495e-06
3.70208422700492e-06
3.82521195120941e-06
3.90332247175094e-06
3.93519956569106e-06
3.92110230332801e-06
3.8653417914258e-06
3.77171377627046e-06
3.64482414411827e-06
3.48971114173657e-06
3.31164354286884e-06
3.11592332653651e-06
2.90771140428823e-06
2.6918809690382e-06
2.47289945157618e-06
2.25474156807087e-06
2.04083531814599e-06
1.8340373774325e-06
1.63664088818928e-06
1.45040299007167e-06
1.27659044876422e-06
1.1160282909119e-06
9.69135092670313e-07
8.35972160258114e-07
7.16296626494018e-07
6.0962226631693e-07
5.15278272956853e-07
4.32469007366008e-07
3.60320743671783e-07
2.97929467285964e-07
2.44384688552637e-07
1.98788155979419e-07
1.60266034824821e-07
1.27983268068179e-07
1.01153961629644e-07
7.90528914259925e-08
6.10187493044023e-08
4.64556627101696e-08
3.48291200403985e-08
2.56661504582442e-08
1.85480394435763e-08
1.3112588985934e-08
9.0425008041029e-09
6.06978369840844e-09
3.9597731279627e-09
2.51941108443997e-09
1.58044661829646e-09
1.0096636008217e-09
7.01175312240511e-10
5.8508401534905e-10
6.50878197616381e-10
9.51194474096742e-10
2.16469645614951e-09
2.75215909994556e-09
2.19637274831483e-09
1.34276122418168e-09
2.9612282647815e-10
7.96576498320748e-11
1.84961608137345e-09
9.89275027775607e-09
3.45072707746726e-08
9.60318076825334e-08
2.28130537226129e-07
4.81316978992237e-07
8.75052500630002e-07
1.40226237726192e-06
2.12446976246233e-06
3.15847059105241e-06
4.76470343297883e-06
7.58521628912688e-06
1.38271605319836e-05
2.79111784622601e-05
5.74756879965296e-05
0.000126797435218194
0.000276325829484686
0.000541320644002126
0.000462788841902112
0.000138431676281418
1.73297057576015e-05
4.74018048271497e-06
0.000284157472755447
0.00022783745749841
7.99020268741615e-05
4.17342852446845e-06
2.40084846586471e-07
9.93588041572428e-08
2.51043427748037e-08
8.28020138800411e-09
4.26141277104224e-09
2.52711286971565e-09
1.73494909078594e-09
1.64909699044705e-09
2.0252591697739e-09
3.18813422103906e-09
6.19477638456426e-09
1.33887130044199e-08
2.87583374473196e-08
5.73276286496806e-08
1.05093088647535e-07
1.75756290047455e-07
2.68964058912373e-07
3.83625819144689e-07
5.23289522792091e-07
6.85328115355572e-07
8.60366951359132e-07
1.05438690169161e-06
1.36066712430539e-06
1.96269868467415e-06
3.61421059441545e-06
6.4108667857152e-06
9.56156728757927e-06
1.29060057320782e-05
1.6318866456136e-05
1.97171009898791e-05
2.30280247786043e-05
2.61980559388753e-05
2.91763290903327e-05
3.19213547317344e-05
3.43963650243871e-05
3.65724997560375e-05
3.84286795264746e-05
3.99539163961417e-05
4.1144579969783e-05
4.19943176911942e-05
4.24704807161093e-05
4.25521578124689e-05
4.22815076218705e-05
4.16782176309186e-05
4.07687238714514e-05
3.95831477950257e-05
3.81543780878634e-05
3.65171320502151e-05
3.47070434419753e-05
3.27598107660736e-05
3.07104165450412e-05
2.85924387326938e-05
2.64374783261177e-05
2.42747340331758e-05
2.21307148386734e-05
2.00291310531021e-05
1.79908115420329e-05
1.60336988697078e-05
1.41726944921581e-05
1.24196649484371e-05
1.07834755225177e-05
9.27021114378875e-06
7.88339556757557e-06
6.62435491814638e-06
5.49250738567394e-06
4.48572431493554e-06
3.60050686221102e-06
2.83214284766391e-06
2.17484020231839e-06
1.62192123207457e-06
1.16602068338523e-06
7.99300587194991e-07
5.13594902199883e-07
3.005255694603e-07
1.51578380057376e-07
5.82024060717526e-08
1.18496440903335e-08
4.04014400926396e-09
2.6344928375203e-08
7.03367580772641e-08
1.27624899172204e-07
1.89582723660535e-07
2.47690400713725e-07
2.92977917347868e-07
3.1703280398405e-07
3.12360865940005e-07
2.74807140642632e-07
1.99292620923052e-07
1.11549022548804e-07
1.08254672792219e-07
1.63784982391152e-07
2.8528950139385e-07
5.21488101548069e-07
9.50662140435044e-07
1.71217370645836e-06
3.08212686437318e-06
5.3734343191404e-06
8.96842107143956e-06
1.41619473469467e-05
2.1150184871064e-05
2.932162097478e-05
3.82626175297391e-05
4.81098605085976e-05
5.94695940554379e-05
7.37516035943145e-05
9.41228688170431e-05
0.000129172777609771
0.000188314571881908
0.000288214996777952
0.000468230448363822
0.000766985450448016
0.00115671441657898
0.00118771038913223
0.000886913504284338
0.000499187191062204
0.000353508318886726
0.00298519555705138
0.00223576477155496
0.00138041659585026
0.000258524663692964
4.26084684550385e-07
8.20824627343908e-07
2.85282344755889e-07
9.83077467975621e-08
6.03897197132633e-08
4.07144536947424e-08
3.23295518734952e-08
3.39196054950211e-08
4.54133990001349e-08
7.48305970209742e-08
1.44745580348477e-07
2.98357630562599e-07
6.00519074950987e-07
1.12190803157941e-06
1.92810329157124e-06
3.04746603421418e-06
4.48487244909694e-06
6.24804534044453e-06
8.36743591098701e-06
1.08883638845923e-05
1.39218149751656e-05
1.79622881004744e-05
2.44911868330257e-05
3.38837233339076e-05
4.62384719995193e-05
5.8974714346065e-05
6.9453009038417e-05
7.76902118457204e-05
8.43155602805229e-05
8.94669000755583e-05
9.33332938008633e-05
9.60178726042335e-05
9.76289932010674e-05
9.82568812144826e-05
9.79934472283157e-05
9.6926929620587e-05
9.51468886406543e-05
9.27439802056981e-05
8.98327429770226e-05
8.65602301363019e-05
8.29354504947579e-05
7.89515238148444e-05
7.46964323920228e-05
7.02393182223296e-05
6.56444503021296e-05
6.0971154437101e-05
5.62735400347459e-05
5.16005905390011e-05
4.6996232538632e-05
4.24994493378898e-05
3.81444342158729e-05
3.39607780633772e-05
2.9973690938357e-05
2.62042411828334e-05
2.26696200812505e-05
1.9383380858334e-05
1.6355688385445e-05
1.35934916194628e-05
1.11007467904377e-05
8.87862800535288e-06
6.92580938571619e-06
5.23869261794581e-06
3.81166913255446e-06
2.63730540041545e-06
1.70653574486627e-06
1.0087969537519e-06
5.32168045705587e-07
2.63499199361514e-07
1.88554388211719e-07
2.92136144333016e-07
5.58163663432558e-07
9.69721536474074e-07
1.50909906856279e-06
2.15781138603571e-06
2.89661421880023e-06
3.70539742701074e-06
4.56311371429623e-06
5.44735885137019e-06
6.33429415582858e-06
7.19784185295733e-06
8.00952067687632e-06
8.73707999337597e-06
9.34446193940042e-06
9.78841556022393e-06
1.00212677833213e-05
9.98787290784158e-06
9.66923348193661e-06
8.86103510407779e-06
8.15789240946009e-06
8.44980336695043e-06
9.68435689784671e-06
1.19491604494919e-05
1.51183974294274e-05
1.978465017305e-05
2.64838977834542e-05
3.60650574809565e-05
4.94521001027771e-05
6.77894542090495e-05
9.21061341163919e-05
0.000123251484575669
0.000162292854275509
0.000210983708332874
0.000269906449067309
0.000341378128074878
0.000430413061769749
0.000546460032613987
0.000705259724155362
0.000922102094227651
0.00122695959634147
0.00162644508389837
0.00206878769425271
0.00240637178558144
0.00308829311429048
0.00420150122979121
0.00452302068424746
0.00391577820227452
0.00473077811458806
0.0036321427883099
0.00321961090734048
0.00156447254086464
4.22462279056347e-05
2.62282827804517e-06
1.49297307422765e-06
5.4501672662098e-07
3.68100816566592e-07
2.7283007215656e-07
2.39571536691113e-07
2.6861571410148e-07
3.77181003692764e-07
6.25259009456414e-07
1.15753684808544e-06
2.18801178640146e-06
3.94153922059488e-06
6.50959164460496e-06
9.81381784849816e-06
1.36471046280915e-05
1.78809034786799e-05
2.24402379930996e-05
2.73565897239921e-05
3.30510176811094e-05
4.02819244763018e-05
5.02216221556843e-05
6.37312762951347e-05
7.36047108651075e-05
7.21898271877101e-05
6.64133692937021e-05
6.17429905270748e-05
5.71239642529416e-05
5.30579073132776e-05
4.92892088839451e-05
4.5768206360137e-05
4.24136938253306e-05
3.91985287204606e-05
3.6101702103825e-05
3.31184923229857e-05
3.02484499487514e-05
2.74973174865162e-05
2.48819183040686e-05
2.24292446976282e-05
2.01061626298166e-05
1.7910996718627e-05
1.58433159918801e-05
1.39087784454205e-05
1.21099506762743e-05
1.0448378386362e-05
8.92487558721734e-06
7.53954024816652e-06
6.29187154563801e-06
5.18084998105099e-06
4.20500932922252e-06
3.3624974337666e-06
2.65111880226723e-06
2.06836364762406e-06
1.61141321950121e-06
1.27714913278077e-06
1.06216482258887e-06
9.62804205611406e-07
9.75246794970062e-07
1.09552971063479e-06
1.31954511461274e-06
1.64299186088337e-06
2.061340762196e-06
2.56974508787196e-06
3.16303944143734e-06
3.83567285162132e-06
4.58180448379991e-06
5.39536535543637e-06
6.27011213709419e-06
7.19954763213386e-06
8.17685481721206e-06
9.19475692217828e-06
1.02454978776931e-05
1.1320827113826e-05
1.24120680762348e-05
1.35099384035073e-05
1.46046623986446e-05
1.56853156628818e-05
1.67406478468666e-05
1.77571079778667e-05
1.8722212761431e-05
1.96189439909833e-05
2.04342398229724e-05
2.11489583791053e-05
2.17492027062108e-05
2.22218475044238e-05
2.25597847109368e-05
2.28530127878522e-05
2.29408600673915e-05
2.41771493082706e-05
2.51723367011479e-05
2.71347790510278e-05
3.07355993477669e-05
3.53711429063549e-05
4.17965364576182e-05
5.02394312126555e-05
6.05888872111901e-05
7.31440590675598e-05
8.82986309040754e-05
0.000106615119711486
0.000128509764107176
0.000157772279928493
0.000199509789269663
0.000255754967977772
0.000329338919168114
0.000424297133809189
0.000543211637778796
0.000672439490137408
0.00080001223834892
0.000928699538742643
0.00100248153996407
0.000959366359868084
0.000773155430596713
0.00103861980192891
0.00252025949810094
0.00476553817155755
0.0055099678782788
0.0037578278969621
0.00305019036472278
0.0032341233872925
0.00282848460979164
0.000396436861877067
1.87186501326722e-06
4.06005696321931e-06
1.66202568350976e-06
1.23648912112257e-06
1.01852551029704e-06
9.79663472163606e-07
1.15176073669913e-06
1.63604140975512e-06
2.60708213965534e-06
4.38288790974496e-06
7.17591804788707e-06
1.0875031972673e-05
1.49118577057327e-05
1.86596675811974e-05
2.18999666998046e-05
2.49453533701113e-05
2.80910308614348e-05
3.1594622400504e-05
3.617730806421e-05
4.25481921401773e-05
5.08654747951272e-05
5.91639271995297e-05
5.74849315782516e-05
4.27422139180216e-05
3.01274396704342e-05
2.28786407827011e-05
1.77137503612335e-05
1.40558093560643e-05
1.12776177929264e-05
9.10099459925609e-06
7.34297237516509e-06
5.90158964403653e-06
4.70955087066247e-06
3.72423126104212e-06
2.91595365712795e-06
2.26434362122031e-06
1.75430235368871e-06
1.36673964992052e-06
1.09338535483352e-06
9.22041166863878e-07
8.43865568778069e-07
8.51713862077347e-07
9.38389533380173e-07
1.09736275519929e-06
1.32256502602655e-06
1.60838393800036e-06
1.94964229762203e-06
2.34158831085531e-06
2.7798841023897e-06
3.26058866054556e-06
3.78012774911093e-06
4.3352537704048e-06
4.92299843030884e-06
5.54062170747661e-06
6.18559680493547e-06
6.85558422198358e-06
7.54851661024565e-06
8.26257725550576e-06
8.99613885041386e-06
9.74761445287724e-06
1.05153767766661e-05
1.12976081927554e-05
1.20923095067305e-05
1.28972178554461e-05
1.37099300217943e-05
1.45280113057697e-05
1.53490649189317e-05
1.61705959716787e-05
1.6989902291002e-05
1.78038752731442e-05
1.86090191782771e-05
1.94014487100163e-05
2.01771391255372e-05
2.09315890651272e-05
2.16603511102812e-05
2.23577974982503e-05
2.30191878112646e-05
2.36372503808964e-05
2.42086290858188e-05
2.47254890101854e-05
2.51891917986128e-05
2.55978060035648e-05
2.59630055327964e-05
2.63109268465662e-05
2.66904093265813e-05
2.73089577680249e-05
2.81603986449816e-05
3.09059087850978e-05
3.27413327098666e-05
3.49843296284244e-05
3.87206415078145e-05
4.33632184797458e-05
4.95349120455941e-05
5.72759652912518e-05
6.59712856600656e-05
7.53689453555137e-05
8.5258881733293e-05
9.55836492772298e-05
0.000106081715695751
0.000119762297393671
0.000141351356439485
0.00017252923549846
0.000214815838127304
0.000270078459115015
0.000337238104280982
0.000397987168891601
0.000435933135749935
0.000455059825388494
0.000427000539094125
0.00033383615775839
0.000168117576548448
9.31042076981184e-05
0.000605520938476743
0.00232796840179283
0.00372995552485481
0.00247988494427121
0.00217036656394938
0.00251764982948026
0.00330529658045878
0.00115054880029695
1.41276153699009e-05
5.82723303666935e-06
3.2153491402137e-06
2.6324406437153e-06
2.4291591268692e-06
2.52536679322796e-06
3.032693187989e-06
4.1844064711815e-06
6.12982754034295e-06
8.95877201524264e-06
1.22372060685954e-05
1.51923651688648e-05
1.71816440545824e-05
1.8211986247546e-05
1.89226914904892e-05
2.00559347626621e-05
2.18374803263153e-05
2.42702283487399e-05
2.77412977070677e-05
3.23654474263155e-05
3.73701978628525e-05
4.0187029798783e-05
3.36473586624324e-05
2.01794962233351e-05
1.13289597961139e-05
6.85202027616398e-06
4.05947820837434e-06
2.33688247192732e-06
1.24503720588538e-06
5.69134825829666e-07
1.86177986466791e-07
2.30376976016239e-08
3.36183959645504e-08
1.86880811563217e-07
4.60479338822996e-07
8.36626234023263e-07
1.30238533861029e-06
1.84581492947023e-06
2.45462426386512e-06
3.12047337753224e-06
3.83551662815959e-06
4.59101430148075e-06
5.37920254253777e-06
6.19295413641704e-06
7.02569414695197e-06
7.87143856836833e-06
8.72478463467536e-06
9.58092220191831e-06
1.04356354984052e-05
1.1285295577107e-05
1.21268358727976e-05
1.29577133803865e-05
1.37758634022546e-05
1.45796289625603e-05
1.53677304513179e-05
1.61391800835566e-05
1.68933805404552e-05
1.7630135153279e-05
1.8349560637642e-05
1.90518850598488e-05
1.97373365534997e-05
2.04059499428539e-05
2.10575773920712e-05
2.16917675210049e-05
2.23078734261663e-05
2.29052566064727e-05
2.34834185234561e-05
2.40418401362381e-05
2.45798402738169e-05
2.5096292180646e-05
2.55896279868678e-05
2.60578502906657e-05
2.64989696135889e-05
2.6910544493465e-05
2.7290529693001e-05
2.76355522066529e-05
2.79438172249042e-05
2.8211027033254e-05
2.84380075281482e-05
2.86219201679036e-05
2.87709545059275e-05
2.88936205435318e-05
2.90149909441692e-05
2.91871532150824e-05
2.94916685657374e-05
3.02197210065447e-05
3.14025123405621e-05
3.47819285717829e-05
3.7417818392343e-05
4.02108398397323e-05
4.43416145866078e-05
4.9390946474312e-05
5.59049194636813e-05
6.39265345950739e-05
7.27122391387676e-05
8.1680991678489e-05
9.02464626064289e-05
9.79670969654737e-05
0.000104204416714457
0.000111305394329646
0.000123792762730279
0.000143352641206133
0.000170971891875128
0.000207875584016713
0.000253149832048228
0.000292985164920182
0.000314572747304606
0.000326886156394856
0.000319004665797902
0.000284912500633845
0.000194478025953615
3.08572771220616e-05
9.14566698148366e-05
0.000928363071480907
0.00207605577994108
0.00159380681581025
0.00150065391207748
0.00182184393558086
0.00322827347098218
0.00182843656357265
0.000118889670864147
3.29475430778668e-06
4.13482270225381e-06
3.71895286567272e-06
3.85213230054005e-06
4.28460889007786e-06
5.15193850827374e-06
6.73415372438607e-06
8.89523229061988e-06
1.12171840651705e-05
1.28919684675097e-05
1.34873797544518e-05
1.32310868008979e-05
1.27244240554014e-05
1.26384484282374e-05
1.33938717163837e-05
1.49230365123128e-05
1.70275349869514e-05
1.98264617750014e-05
2.3104278677541e-05
2.58722168069088e-05
2.62745014897819e-05
2.00486477239961e-05
1.08184634850433e-05
5.42348938170151e-06
2.96043613780752e-06
1.72550431782179e-06
1.20423624943045e-06
1.13474646847996e-06
1.35423632653933e-06
1.78342600008078e-06
2.36839590711734e-06
3.07668733970524e-06
3.88437324519493e-06
4.77364219520509e-06
5.73015760873116e-06
6.74338921916348e-06
7.80125963032719e-06
8.89252514414876e-06
1.00100372051045e-05
1.11454595155575e-05
1.22892957909809e-05
1.34333150066526e-05
1.45699629201257e-05
1.56923639463887e-05
1.67943663886203e-05
1.78705375986691e-05
1.89161875281225e-05
1.99273782403094e-05
2.09009239309872e-05
2.18343705057659e-05
2.27259585891983e-05
2.35745756122585e-05
2.43796563895801e-05
2.51411211025905e-05
2.58592027548197e-05
2.65345725097724e-05
2.71684188769182e-05
2.77623451601178e-05
2.8318117232397e-05
2.88375252538533e-05
2.93221321319113e-05
2.97732853720977e-05
3.01919216136426e-05
3.05786247303107e-05
3.09339603429814e-05
3.12587127814074e-05
3.15537169521052e-05
3.18196891438232e-05
3.2056838577728e-05
3.226480897136e-05
3.24427073202245e-05
3.25897402971631e-05
3.27046676749836e-05
3.27868569018719e-05
3.28343623181136e-05
3.2847261856688e-05
3.28231279421596e-05
3.2765394532979e-05
3.26750258243438e-05
3.2564839180866e-05
3.24519047132766e-05
3.23711609633351e-05
3.23970284574648e-05
3.26348863989617e-05
3.34480384228178e-05
3.48440364055173e-05
3.85263283680979e-05
4.18607203569879e-05
4.5369086033522e-05
5.0134579165599e-05
5.59343253757115e-05
6.32820924202545e-05
7.22835761684257e-05
8.2183108110197e-05
9.21691776364243e-05
0.000101334660689865
0.000108935342653347
0.000114096823038088
0.000118853403009248
0.000127873702468541
0.000143217001913499
0.000165969099614161
0.000197609257078988
0.000238536884724624
0.000279668267857092
0.000311674050021814
0.000346517677029654
0.000379311249531314
0.000402173962277005
0.000355163854081117
0.000138654934864934
2.73167260675184e-05
0.00040886324527646
0.00116962582864196
0.00105838642768937
0.00105327776115848
0.00130307859735414
0.002892339703195
0.00238592533809736
0.000381170016659426
5.89091424542612e-07
3.67700390408154e-06
3.68260152044621e-06
4.24005939890055e-06
5.04122023736609e-06
6.05261264977999e-06
7.49782667864946e-06
9.01835710246381e-06
1.00428313195145e-05
1.00837565628541e-05
9.36000743310652e-06
8.45470421479548e-06
7.82445605909386e-06
7.80961688145909e-06
8.59231390241394e-06
1.00388539080517e-05
1.19088519388418e-05
1.41840546596712e-05
1.65447521050449e-05
1.81195717026347e-05
1.78763993270466e-05
1.33660853599442e-05
7.61832181817392e-06
4.54109813811939e-06
3.46570493486713e-06
3.32608284228764e-06
3.66289802874298e-06
4.33402185641902e-06
5.20635259978419e-06
6.22993170473033e-06
7.36259381801274e-06
8.58090607949312e-06
9.86558498529611e-06
1.12022416176168e-05
1.25796981098498e-05
1.39880772491318e-05
1.54160711218146e-05
1.68532692683178e-05
1.82923131461743e-05
1.97240027139639e-05
2.11382761869842e-05
2.2526333276367e-05
2.38801493377272e-05
2.51925086081938e-05
2.64570462479289e-05
2.76682464949812e-05
2.88214774425862e-05
2.99130095142577e-05
3.09400265341342e-05
3.19006123021495e-05
3.27937202698743e-05
3.36191234954507e-05
3.43772809168313e-05
3.50692321047341e-05
3.56963060930379e-05
3.62602844250444e-05
3.67635852343552e-05
3.72091571296794e-05
3.76001747420973e-05
3.79398787159931e-05
3.82312501511596e-05
3.84770263359905e-05
3.86793964261149e-05
3.88399683251912e-05
3.89602627764573e-05
3.90420981403705e-05
3.9087430570041e-05
3.90981623149273e-05
3.90756320449006e-05
3.90204462541044e-05
3.89325280592567e-05
3.88119726014963e-05
3.86583882890913e-05
3.84723002214838e-05
3.82529865475305e-05
3.80018718781265e-05
3.77182385254147e-05
3.74075917624714e-05
3.70744009753559e-05
3.67354850116681e-05
3.64161842543815e-05
3.616028697717e-05
3.60637092379041e-05
3.62511618821047e-05
3.71485268451364e-05
3.87092034850605e-05
4.2542791155258e-05
4.65058400648425e-05
5.08324341766922e-05
5.6402127056029e-05
6.31863891896917e-05
7.16885700748322e-05
8.20933982985061e-05
9.36718610030649e-05
0.000105424844661995
0.000116131527342365
0.000124771507272273
0.000130319303775111
0.00013472862820487
0.000142980331477024
0.000157652917127081
0.000180235311410632
0.00021287701182449
0.000257665775438539
0.00030965553858695
0.000362155210546552
0.000428393043180292
0.00050258951442149
0.000567048032840997
0.000532709447981405
0.000261288488558714
5.46591070843121e-05
0.000223967654445177
0.000718781770564137
0.000737314231420388
0.000760579248441628
0.00094551388402418
0.00246686225133683
0.00277269856762643
0.00071173466522637
1.08263140224785e-05
2.34474436643353e-06
2.85412089476233e-06
3.50868079371349e-06
4.47263401299745e-06
5.41265418660596e-06
6.45036771528219e-06
7.22590471042363e-06
7.34883529027796e-06
6.7355712233997e-06
5.82349692008019e-06
5.05344113989549e-06
4.63449421234075e-06
4.72996718576573e-06
5.46864306925573e-06
6.75821214416962e-06
8.36765560654071e-06
1.02081109821272e-05
1.19642279573974e-05
1.2966069162678e-05
1.27977919964592e-05
1.01228380422759e-05
7.08263755389655e-06
5.74778850028458e-06
5.7811641655863e-06
6.52746889266149e-06
7.56949825655187e-06
8.85620143495942e-06
1.02748877607436e-05
1.17988240965317e-05
1.33942983562519e-05
1.50449642646124e-05
1.67351412832484e-05
1.84535500698958e-05
2.01910584101404e-05
2.19384902703465e-05
2.36850396328204e-05
2.54205466108296e-05
2.71367910934169e-05
2.88235385102263e-05
3.04700319098454e-05
3.20667120630849e-05
3.36049443929829e-05
3.5077046499481e-05
3.64763234317357e-05
3.77970658645485e-05
3.90345954928746e-05
4.01852931943511e-05
4.12466238702306e-05
4.22171322884514e-05
4.30964242048174e-05
4.38851158165462e-05
4.45846611666184e-05
4.51971926428813e-05
4.57250734025578e-05
4.61711057307005e-05
4.65388573357482e-05
4.68325637842321e-05
4.70567679848707e-05
4.72161450302169e-05
4.73150879076182e-05
4.73577326997628e-05
4.73475120005408e-05
4.72869833203568e-05
4.71785102742395e-05
4.70248391229902e-05
4.68289637114846e-05
4.65939171437851e-05
4.6322126198373e-05
4.60150849628396e-05
4.56734313233239e-05
4.5297993273645e-05
4.48891804095636e-05
4.44486336815949e-05
4.39767236096152e-05
4.34761711604492e-05
4.29479612347666e-05
4.23995623230847e-05
4.18390584127927e-05
4.12872230560402e-05
4.07778331388144e-05
4.03632408299415e-05
4.0160659626453e-05
4.0310770058492e-05
4.12930936741748e-05
4.29891877283536e-05
4.68796574987781e-05
5.14104391248897e-05
5.66182785710799e-05
6.31147474832302e-05
7.10504993661876e-05
8.09262356327545e-05
9.30049458385202e-05
0.000106595355246238
0.000120529707878799
0.000133270052340694
0.000143537145078161
0.00015023214681619
0.000155388377129164
0.000164358065742322
0.000180273317381431
0.000205171828673559
0.000242068889398381
0.000294850530436619
0.000362186362218399
0.000439293915077772
0.000538976757046795
0.000650098050485267
0.00073990901383375
0.000696557990109755
0.000367488958687052
9.59978769167455e-05
0.000154813623952751
0.000485386808035274
0.000542000442690984
0.00056997127093935
0.000709587799093064
0.00204593905705851
0.00298100428736757
0.00112044017191472
5.0174945781602e-05
8.80531522569431e-07
2.00483620178059e-06
2.38203186013829e-06
3.23882641052892e-06
4.00215857459671e-06
4.67680313849854e-06
5.00830884859681e-06
4.82617745121235e-06
4.22281190844436e-06
3.54518570112669e-06
3.02843076259159e-06
2.76097222215046e-06
2.85571773882844e-06
3.4544836793413e-06
4.52854678331763e-06
5.87336321304015e-06
7.36743677126224e-06
8.74600922617509e-06
9.53488298571049e-06
9.72860753290109e-06
8.73006977030562e-06
7.8538044827143e-06
7.93466277585209e-06
8.93024782828111e-06
1.04583660058247e-05
1.21378369856744e-05
1.39884808482435e-05
1.59122114959765e-05
1.79017488589726e-05
1.99298488827037e-05
2.19862437170115e-05
2.40583282857525e-05
2.61377851619033e-05
2.82168820112337e-05
3.02871121589609e-05
3.23379451433568e-05
3.43590715614464e-05
3.63411886598588e-05
3.82729546039982e-05
4.01427598325425e-05
4.19401570488692e-05
4.36558067661922e-05
4.52814761491881e-05
4.68100643021743e-05
4.82355969209649e-05
4.95532820429668e-05
5.07595486773584e-05
5.18520882190173e-05
5.28298620647228e-05
5.36930999706899e-05
5.44432525100187e-05
5.50827771182505e-05
5.56149141302883e-05
5.60430391284765e-05
5.63709218484522e-05
5.66032356426651e-05
5.67454815259245e-05
5.6803567007144e-05
5.67836238355892e-05
5.66914917042053e-05
5.65327617622276e-05
5.63121538217208e-05
5.60331527893041e-05
5.56989049341857e-05
5.53130332175262e-05
5.48795439442973e-05
5.44026085590778e-05
5.38857671840388e-05
5.33313995663641e-05
5.27408032376552e-05
5.21155064035646e-05
5.14568117213695e-05
5.07673506889646e-05
5.00487147008355e-05
4.93049403740076e-05
4.85388435831571e-05
4.77599558696427e-05
4.69802065425877e-05
4.62245140367754e-05
4.55354214426904e-05
4.49738300020087e-05
4.46781400264228e-05
4.48020479273462e-05
4.58703719278628e-05
4.76820891799045e-05
5.15634070974018e-05
5.66006759706964e-05
6.27228009595174e-05
7.02371938260413e-05
7.94505265973018e-05
9.08607975352924e-05
0.000104800620496326
0.000120615437280413
0.000136976472451195
0.000152026549418715
0.0001642519218882
0.000172562694880529
0.000179191605003792
0.000189867772557164
0.000208262154399686
0.000237035403896146
0.000280168575998322
0.000343375914663408
0.000428564120108704
0.000532195668881602
0.000665627651074583
0.000807807180067241
0.000908168563644431
0.000840396743693866
0.000453814431942759
0.000133035068709118
0.000130091974520039
0.000358779853614047
0.000419938893094367
0.000444647818941669
0.000556966142799991
0.00167271400843148
0.00303280459920433
0.00156170066974812
0.000137876600472175
5.95398481617386e-08
1.44690954130973e-06
1.41603884168682e-06
1.99053790173206e-06
2.55857048994608e-06
3.00919601127691e-06
3.18802184966024e-06
3.05290923101408e-06
2.70032930035448e-06
2.31273414274249e-06
1.98726910689732e-06
1.77549207792684e-06
1.78702442165496e-06
2.19124945353632e-06
3.02474431413869e-06
4.11995310718181e-06
5.34630509374218e-06
6.50412962303381e-06
7.2839748786925e-06
7.93631243235107e-06
8.39356483786323e-06
9.29201136136807e-06
1.05968635760877e-05
1.24834929893173e-05
1.47496757278858e-05
1.70463922461499e-05
1.94491591840182e-05
2.18711745320395e-05
2.43222849202728e-05
2.67806590221884e-05
2.92416954167684e-05
3.16957048648702e-05
3.4137178583039e-05
3.65595329048838e-05
3.89548899108279e-05
4.13128599591943e-05
4.36228058992332e-05
4.5874307688112e-05
4.80548574848268e-05
5.01518484777353e-05
5.21538600394674e-05
5.40507885708572e-05
5.58338027757076e-05
5.74953545066427e-05
5.90291660041507e-05
6.04302957809286e-05
6.16951883295778e-05
6.28217347483766e-05
6.38092945572911e-05
6.4658717870892e-05
6.53723059185052e-05
6.59535554821646e-05
6.64068608518025e-05
6.67366155304728e-05
6.69475249195338e-05
6.7045344596245e-05
6.70368397218709e-05
6.69292974858181e-05
6.67303471179417e-05
6.64473294647136e-05
6.60873716849401e-05
6.56565524344319e-05
6.51592858672242e-05
6.45994629576215e-05
6.39815570411188e-05
6.33105891080759e-05
6.25919071575411e-05
6.18302256624115e-05
6.10288287645441e-05
6.01896506806415e-05
5.93150244479313e-05
5.84070985030975e-05
5.74695546643611e-05
5.65053439257579e-05
5.55199245649151e-05
5.45181290825193e-05
5.35117458222067e-05
5.25168364504194e-05
5.1562776497446e-05
5.0701248105958e-05
5.0001775447753e-05
4.96237068203206e-05
4.97309454077247e-05
5.08856842172662e-05
5.27984843667875e-05
5.66247671886572e-05
6.2109066485304e-05
6.91561961364384e-05
7.77558220536252e-05
8.83436831440872e-05
0.000101410062216398
0.000117343979336027
0.000135519163449621
0.000154446590371739
0.000171953169549437
0.000186327980833686
0.000196579537814115
0.000205231965807845
0.000218364008753042
0.000240145321185173
0.000273895368653919
0.000324611021513206
0.000399849554614263
0.000504457747432542
0.000636049171137112
0.000801936452144148
0.0009696440826402
0.00106560733964998
0.000962994358357656
0.000521843331922402
0.000161813918401867
0.000122088246221688
0.00028649698821736
0.000340925618275829
0.000360644955465577
0.000458330998466719
0.00136354353233294
0.00295624786039954
0.00197525883353249
0.000300336521827205
2.11132511021636e-06
1.09302039473759e-06
7.91100174299202e-07
1.01753441960967e-06
1.41597544529333e-06
1.76668594156968e-06
1.97187777302794e-06
2.02961288954113e-06
1.97197704605809e-06
1.83281021381538e-06
1.62703444744136e-06
1.40426249367656e-06
1.28597423827165e-06
1.4702677109276e-06
2.0566703880352e-06
2.92238849649231e-06
3.94227875474556e-06
4.9807508016868e-06
5.86114786196509e-06
6.98388247058038e-06
8.68713369744588e-06
1.10863471602962e-05
1.35019315357982e-05
1.62486235972079e-05
1.92411367516128e-05
2.2160281737667e-05
2.51249986186148e-05
2.80577048133154e-05
3.09836099168071e-05
3.38856458365625e-05
3.67646832691057e-05
3.9613909788017e-05
4.24304476236008e-05
4.52088153096436e-05
4.79417537402995e-05
5.06189654936599e-05
5.32294424119097e-05
5.57616847424253e-05
5.8201954635598e-05
6.05365249989866e-05
6.27529483732133e-05
6.4840327117837e-05
6.67892135405583e-05
6.85915999100362e-05
7.02408940486348e-05
7.1731994995316e-05
7.30613541514633e-05
7.42270575154863e-05
7.52288639198425e-05
7.606825837686e-05
7.67484272353888e-05
7.72739634884659e-05
7.76504857145805e-05
7.7883430360031e-05
7.79784197681683e-05
7.79422809610103e-05
7.77830545962881e-05
7.75094335157792e-05
7.71305955774865e-05
7.66554478967027e-05
7.60927506974495e-05
7.54500314913778e-05
7.4732647903696e-05
7.39452076015303e-05
7.30930212667506e-05
7.21821427821639e-05
7.12191556489069e-05
7.02100320708616e-05
6.91589581396396e-05
6.80686309511369e-05