/*--------------------------------*- C++ -*----------------------------------*\
| =========                 |                                                 |
| \\      /  F ield         | OpenFOAM: The Open Source CFD Toolbox           |
|  \\    /   O peration     | Version:  2.4.0                                 |
|   \\  /    A nd           | Web:      www.OpenFOAM.org                      |
|    \\/     M anipulation  |                                                 |
\*---------------------------------------------------------------------------*/
FoamFile
{
    version     2.0;
    format      ascii;
    class       volScalarField;
    location    "18000";
    object      PkDelta;
}
// * * * * * * * * * * * * * * * * * * * * * * * * * * * * * * * * * * * * * //

dimensions      [0 2 -3 0 0 0 0];

internalField   nonuniform List<scalar> 
15600
(
6.80806578638966e-08
3.94033792727861e-08
1.52441569808825e-08
-1.93157990112314e-12
-1.60257184111262e-09
-3.34603400660206e-10
-2.76538315632601e-11
-7.40457294208574e-12
-1.34972324498134e-12
-4.31557909630243e-13
-6.06295188576331e-14
4.53614349861696e-15
4.73735742638053e-14
1.19562889330816e-13
3.05263932915962e-13
8.34231352603402e-13
1.80296928829435e-12
3.40497133032058e-12
5.41625114337352e-12
9.00757804768349e-12
1.68856014928273e-11
3.56447344785412e-11
6.17494859237149e-11
8.70893592136166e-11
1.04925745828511e-10
1.2677692777507e-10
7.53976253539922e-11
1.47027656739906e-10
4.84822998063173e-10
8.94667710400309e-10
1.64154802253401e-09
2.06476967217508e-09
2.54006635753853e-09
2.78189363286861e-09
2.93796476791248e-09
2.91788499691158e-09
2.78923705775134e-09
2.53971906111939e-09
2.21075999750854e-09
1.81732846538722e-09
1.3923578641676e-09
9.61096781159424e-10
5.52428767599811e-10
1.43851985219721e-10
-2.46579013524141e-10
-5.84113504864855e-10
-8.57419169119547e-10
-1.0692172482677e-09
-1.22081187849203e-09
-1.31609262592014e-09
-1.36098414186705e-09
-1.36271634992567e-09
-1.32912695237417e-09
-1.26810792436347e-09
-1.1871677772333e-09
-1.09314096937637e-09
-9.91855272381587e-10
-8.88351044761561e-10
-7.86270709849048e-10
-6.88808673276408e-10
-5.97624488324933e-10
-5.14193577530532e-10
-4.38897973495295e-10
-3.72119757337229e-10
-3.13391223304901e-10
-2.62501273192002e-10
-2.18594887023918e-10
-1.81172814087098e-10
-1.49378886685931e-10
-1.2258597086621e-10
-1.00065053672369e-10
-8.12598524778838e-11
-6.55986022890435e-11
-5.26219569697901e-11
-4.19156456108396e-11
-3.31102889848964e-11
-2.59218543852383e-11
-2.00643093788402e-11
-1.53579022487363e-11
-1.15695967163244e-11
-8.59957877658586e-12
-6.24873174542422e-12
-4.47363143258242e-12
-3.10578941090741e-12
-2.13943291347396e-12
-1.43340503110812e-12
-9.69431629267523e-13
-6.59547232295795e-13
-4.98785527567351e-13
-4.6098152117111e-13
-5.19939144898118e-13
-1.20227161032591e-12
5.18935094846957e-13
2.81302087225373e-12
9.00089825914446e-12
7.21879763237711e-12
2.12371419610045e-12
6.1987021578551e-13
1.55022230045652e-11
7.30949822365675e-11
1.98909230421247e-10
3.02377113293323e-10
7.46844893065525e-11
-1.41265505787061e-09
-4.41521464983278e-09
-9.40359354419689e-09
-1.75288508051632e-08
-3.10630006695366e-08
-5.71543434468657e-08
-1.14991097554405e-07
-2.99032036585907e-07
-8.21305677298236e-07
-2.14016485115241e-06
-6.13128609662218e-06
-1.55141987276894e-05
-3.26951791523011e-05
-1.16956560083899e-05
-1.59099333197404e-06
7.0434902099717e-08
2.21289620714808e-08
-2.36305541468701e-05
-1.85515149552386e-05
3.73481584418002e-07
1.27940044766128e-07
1.39082776905e-08
2.82868469310327e-09
4.74519908860973e-10
8.61252606853013e-11
3.36868791001591e-11
1.0372170773025e-11
3.37750680954015e-12
-3.05462282211123e-13
-4.35178360134815e-12
-1.19112784442995e-11
-3.124593459078e-11
-6.29994376671988e-11
-1.07070742717259e-10
-1.01620191601713e-10
3.31981697454568e-11
3.49332591431781e-10
7.45615312908561e-11
-1.3846603388358e-09
-4.64597623369352e-09
-1.12978720300686e-08
-2.07418334284783e-08
-2.48849813213329e-08
-7.21117110246419e-08
-6.9807872418829e-08
-1.29692266497468e-07
-2.98929569424731e-07
-4.1601517450313e-07
-5.66804659828007e-07
-6.89064962676493e-07
-8.05886643570793e-07
-9.00126945536237e-07
-9.77224146869234e-07
-1.03183399400276e-06
-1.06575763929999e-06
-1.07822774583917e-06
-1.07105643071176e-06
-1.04577329239267e-06
-1.00539380545484e-06
-9.53396138588278e-07
-8.90494749452991e-07
-8.17150412323895e-07
-7.37026075605429e-07
-6.54555692152723e-07
-5.71482176673429e-07
-4.90040859830808e-07
-4.12021082516711e-07
-3.38852697916901e-07
-2.71602914937319e-07
-2.10993529785599e-07
-1.57431467502325e-07
-1.11046769461481e-07
-7.17360593427047e-08
-3.92001363161253e-08
-1.30053015096858e-08
7.40948788800883e-09
2.26400868252664e-08
3.33600924309467e-08
4.02130097007392e-08
4.38628846915772e-08
4.49093531700172e-08
4.39430628308924e-08
4.14625631040412e-08
3.79431962628668e-08
3.37628783365404e-08
2.92625515599217e-08
2.47046218498882e-08
2.0304705151633e-08
1.6215383889121e-08
1.25468861142516e-08
9.36296469019486e-09
6.6923962214551e-09
4.53496242396056e-09
2.86470943088076e-09
1.64048178253378e-09
8.05897651274314e-10
3.00590562281399e-10
5.91913707301985e-11
1.95321042943873e-11
1.22867670157089e-10
3.18418178612816e-10
5.60349368413591e-10
8.2646230123335e-10
1.07356355674686e-09
1.3067357065783e-09
1.47390641332166e-09
1.57144329326013e-09
1.63092475649415e-09
8.8552610947212e-10
8.63707829454654e-10
-1.26194654478744e-09
-2.74758278835064e-09
-9.18332721614704e-09
-2.0105730498146e-08
-4.34447836733286e-08
-7.92527728321489e-08
-1.3528630402994e-07
-1.80247556948423e-07
-1.83731184671491e-07
-5.02446134245133e-08
2.63649600867273e-07
8.10129159923775e-07
1.34385057217732e-06
2.03777059050874e-06
3.06946397835774e-06
4.69571400035348e-06
7.85090512365224e-06
1.49125481927659e-05
3.11102674358144e-05
6.25416717904024e-05
0.000128826372820173
0.000264225070656959
0.000417299741357916
0.000319822453236961
2.83224765286901e-05
-2.78235097901908e-05
-4.81544427212014e-05
-0.000209906398753424
-0.000241781411948352
-2.91299202739281e-05
-3.44375646686143e-05
-1.4839207166652e-10
4.83704182792234e-09
3.56918151014091e-09
-1.35923139036118e-10
2.34192861534901e-10
-1.79657714553466e-11
5.9813444629981e-11
4.13026373683117e-11
5.61438526289696e-11
1.36148068761271e-10
1.89076959937556e-10
4.94156650378063e-10
-1.06224557088128e-09
-7.56639311613023e-09
-2.90633146190667e-08
-7.75109799211778e-08
-1.86024362591813e-07
-3.52934443425461e-07
-5.91668636847856e-07
-9.54994833484886e-07
-1.44104873643709e-06
-1.89012259990075e-06
-4.04696981499021e-06
-2.79736381935329e-06
-1.26945939629803e-06
-2.25852541693978e-07
2.36091778468452e-06
4.12083395144409e-06
5.837210459654e-06
7.13995289265429e-06
8.18702160804751e-06
8.92078907424213e-06
9.39383562506905e-06
9.61304661238073e-06
9.61339170058721e-06
9.42032512677073e-06
9.06658044816164e-06
8.5862229497176e-06
8.00947278395819e-06
7.39225393484133e-06
6.74231715955474e-06
6.05950780690074e-06
5.37228559834939e-06
4.69701849543866e-06
4.04838392791261e-06
3.43776025263406e-06
2.873477651159e-06
2.36110808797212e-06
1.90379116230569e-06
1.50257312135713e-06
1.15675058272123e-06
8.64202615154763e-07
6.21728051594868e-07
4.25291398373638e-07
2.70365090168221e-07
1.52028458638585e-07
6.53127218193313e-08
5.20030730513507e-09
-3.31030389107095e-08
-5.41641039973539e-08
-6.21239144179239e-08
-6.07428869620994e-08
-5.32690262411478e-08
-4.2506890589338e-08
-3.0757867885756e-08
-1.98733041324967e-08
-1.12556513279753e-08
-5.8979399002711e-09
-4.41406019395167e-09
-7.08557212480779e-09
-1.39075880105672e-08
-2.4634780877172e-08
-3.88317367531778e-08
-5.59048488033543e-08
-7.51798977644721e-08
-9.58576983505758e-08
-1.17225146175979e-07
-1.38332035166582e-07
-1.58598389500841e-07
-1.76693311377835e-07
-1.9220537068317e-07
-2.02854948778835e-07
-2.10087315651095e-07
-2.11517595166609e-07
-2.0894515634612e-07
-2.00508567820268e-07
-1.79772737286363e-07
-1.96079219737556e-07
-9.47229552979432e-08
-2.95814323177329e-07
-2.59655644886312e-07
-4.70468963817433e-07
-5.73849120525867e-07
-8.467216205675e-07
-1.11345815797448e-06
-1.61080307945479e-06
-2.02901227751547e-06
-2.66251704917306e-06
-3.1318604858362e-06
-3.88054120612641e-06
-3.69328243895328e-06
-4.32180576936291e-06
-5.41971806687202e-06
-6.93899848259647e-06
-9.87445705857935e-06
-1.29688161603031e-05
-2.0762275094332e-05
-1.85602250724376e-05
-9.58702259102511e-06
-2.25041631976321e-05
-1.86632396715503e-05
-0.000143268301441022
0.000385235210885495
0.00065297322706649
0.000684785661613117
-0.000283437958631711
0.00161588522831166
0.000777953094351251
0.000836085240085013
-6.49870540805442e-05
-6.86378026429752e-06
4.12517171459734e-08
2.11371088217501e-08
-4.4013000057005e-09
1.7922985081296e-09
-9.56852242841533e-10
5.58192527058343e-10
3.55638323840009e-10
2.04198355747429e-10
-3.92141749620773e-10
-7.6059242298941e-09
-2.71790231926722e-08
-9.66097652355834e-08
-2.17105897990004e-07
-3.80299760971619e-07
-5.08696666987529e-07
-6.15715416835846e-07
-4.45347143744868e-07
5.95120427263692e-08
7.67044769070112e-07
1.91767733771184e-06
4.87160626954385e-06
5.28542902780092e-06
1.48784624850102e-05
1.56793755273059e-05
1.24129712929203e-05
1.07928553199177e-05
8.3741077808825e-06
6.60941326057632e-06
5.08281355364661e-06
3.88032370037812e-06
2.89759557752313e-06
2.11589278902982e-06
1.49267504659071e-06
1.00485229230805e-06
6.27782477498711e-07
3.43861750372505e-07
1.33661819479851e-07
-1.17634209051903e-08
-1.08805384153936e-07
-1.71041753405788e-07
-2.05254187404614e-07
-2.18101600710861e-07
-2.15659062961774e-07
-2.02781833065519e-07
-1.83348468178485e-07
-1.60391753559197e-07
-1.36222347387436e-07
-1.12541512962583e-07
-9.05439984796534e-08
-7.10097067709372e-08
-5.43846033588516e-08
-4.08483234513729e-08
-3.03772027510435e-08
-2.27876655356919e-08
-1.778661746879e-08
-1.49966772617477e-08
-1.39948646389518e-08
-1.43265983962638e-08
-1.55299372512348e-08
-1.71360476666216e-08
-1.86916598752874e-08
-1.97455121804148e-08
-1.98795509508131e-08
-1.86872511309502e-08
-1.58036121295573e-08
-1.08780798040212e-08
-3.60425890091191e-09
6.30837962280178e-09
1.91042411562083e-08
3.49830188759167e-08
5.41062609103272e-08
7.65375217854664e-08
1.02350004155984e-07
1.31380749050713e-07
1.63633050539482e-07
1.98462331630478e-07
2.35982452680201e-07
2.75468098150834e-07
3.17431668258738e-07
3.57192105663227e-07
3.9531179559869e-07
4.26984548196894e-07
4.5462620227959e-07
4.7152796986159e-07
4.73734505746824e-07
4.87759418108981e-07
3.18636685692877e-07
6.01725289592351e-07
2.93739087916174e-07
7.61252202993107e-07
7.68627222540765e-07
1.21128075354384e-06
1.50353790238613e-06
2.11156070733624e-06
2.54478824849842e-06
3.31029190139911e-06
3.91036352719551e-06
4.87366258555708e-06
5.57054302783756e-06
7.84822884073198e-06
1.10678400251125e-05
1.65206624248584e-05
2.49671057756347e-05
3.60091899957573e-05
5.00195184291513e-05
5.25820920306511e-05
5.09192050286936e-05
3.65581714820195e-05
-3.1961870164127e-05
-0.000115695435794215
-0.000262069739166096
-0.000263174393529455
-0.000134140018990902
0.001646718859041
0.00180680741159623
0.000593812240120437
0.00021697885018962
0.000767530961116343
0.000302179652359895
-4.48143833691947e-05
5.46348077160258e-08
8.48508698625508e-08
-2.65932199083212e-08
7.47637163591197e-09
-1.09247403578637e-08
-2.60268437461322e-09
-8.33920211834162e-09
-2.09802170480967e-08
-4.74161706750333e-08
-1.14576348999429e-07
-1.62421574678069e-07
-1.5845947699687e-07
1.23292332044434e-07
7.00900884088564e-07
1.54653002996666e-06
2.41758843576646e-06
3.50185799541544e-06
4.69580195151191e-06
5.96389563962569e-06
7.67957023203965e-06
1.09315887394641e-05
9.4259245843564e-06
9.35342066993943e-06
2.31006842884097e-06
-1.03551409462234e-06
-1.4958242223494e-06
-1.64980115210817e-06
-1.4820173286719e-06
-1.27715824626026e-06
-1.0579720174048e-06
-8.5795426081884e-07
-6.80844570173204e-07
-5.30183568293724e-07
-4.04963241089008e-07
-3.03718314127867e-07
-2.24236188412064e-07
-1.6390673922326e-07
-1.19786288075227e-07
-8.96526014996554e-08
-7.03907619217844e-08
-5.96068608344706e-08
-5.53251906517478e-08
-5.56890833510127e-08
-5.90711001090317e-08
-6.40635075668047e-08
-6.94741201988135e-08
-7.43156022508236e-08
-7.77906767403972e-08
-7.92749168734399e-08
-7.82982975144955e-08
-7.45273740890192e-08
-6.77456585808044e-08
-5.78447978522755e-08
-4.47980459687427e-08
-2.86727275852109e-08
-9.58155027655972e-09
1.22900625100142e-08
3.67421186304861e-08
6.35142395110446e-08
9.23619110206462e-08
1.22968525264369e-07
1.55054577133721e-07
1.88253836814542e-07
2.22233541579599e-07
2.56602263132175e-07
2.91017816740913e-07
3.25109184701205e-07
3.58556478048787e-07
3.9102529877499e-07
4.22184816962376e-07
4.51737170305093e-07
4.7933265742369e-07
5.04782819343457e-07
5.27664201362813e-07
5.47985548713177e-07
5.65146235153116e-07
5.79990820459095e-07
5.90557579700202e-07
5.97893555031651e-07
5.98400893436205e-07
5.94756304754518e-07
5.84114169578951e-07
5.72255324944749e-07
5.55734108305816e-07
5.31048762720917e-07
5.4266409714978e-07
3.71502044097357e-07
9.42567445633142e-07
8.23792125306939e-07
1.50915396507814e-06
1.54628065873345e-06
2.06955754746871e-06
2.36520251051533e-06
2.96741492825423e-06
3.25249159672367e-06
3.66513097419155e-06
3.62162819415449e-06
3.55532113972321e-06
2.80066284052781e-06
2.522842557573e-06
1.81393407189397e-06
1.46026608290105e-06
1.74182516168018e-06
2.23905548069254e-06
3.26298803212386e-06
-3.37537355511871e-06
-1.29569762268999e-05
-2.90469225652851e-05
-5.82500461116256e-05
-6.3916975031169e-05
-5.56977477918423e-05
-2.87577110475019e-05
-0.000275013942087123
-0.000229948039182747
0.000113703001902415
-0.000335459345611286
-0.000371874396621823
-2.47632020784386e-05
6.42408513821888e-05
0.000130882532539284
-3.04632729743419e-06
4.40444801146315e-07
-8.51495129908645e-08
2.37291599178736e-08
-4.92086562198461e-08
-2.69175517629399e-08
-5.0663564550766e-08
-8.15128072491534e-08
-7.98607237684094e-08
-4.09372783226694e-09
3.61134180896238e-07
8.32730121688682e-07
1.30377992893481e-06
1.49078010160549e-06
1.49023729175267e-06
1.29804484844344e-06
1.15406161584746e-06
1.00496381167739e-06
7.40554795963385e-07
3.80257783394287e-07
3.86059889292248e-07
-3.02495251544313e-06
-2.61772626680913e-06
-2.40729008124803e-06
-1.41846297668704e-06
-6.89393066132411e-07
-3.52116478169302e-07
-1.6354599534571e-07
-7.10879354112823e-08
-2.58780661615017e-08
-6.67389146284354e-09
-6.32148629813771e-10
-6.88366783237135e-10
-2.70049508801963e-09
-4.273962818492e-09
-4.04839904787645e-09
-1.4546271260626e-09
3.6510443508315e-09
1.14618917708356e-08
2.18191353982615e-08
3.43264689370881e-08
4.86218398030685e-08
6.43216387262375e-08
8.10447037161039e-08
9.84254181567607e-08
1.16128669955032e-07
1.3385401077273e-07
1.51339766585741e-07
1.68363672323985e-07
1.84741832990239e-07
2.00323843269513e-07
2.14996656133863e-07
2.28660576969012e-07
2.4126316637681e-07
2.52729550267794e-07
2.63052485638891e-07
2.72188536981089e-07
2.8016246496314e-07
2.86939776549663e-07
2.92569812989465e-07
2.97000216950622e-07
3.00284931382483e-07
3.02354176351177e-07
3.03229153247971e-07
3.02846735610229e-07
3.01219156651646e-07
2.98293994078056e-07
2.94073555563576e-07
2.88518801281525e-07
2.81585745697615e-07
2.73262635190829e-07
2.63449575765746e-07
2.52221945620845e-07
2.3930942413118e-07
2.2508580855963e-07
2.09154996700075e-07
1.92138530054868e-07
1.71712247052934e-07
1.49757693649798e-07
1.24576335195488e-07
9.99252352221368e-08
7.12836648560959e-08
4.32865594996335e-08
1.21853875457312e-08
-2.77016440301101e-08
-3.06096656289991e-08
-2.25930483821175e-07
1.82623781335173e-07
-1.19539642427219e-07
4.5055249151052e-07
2.56596127110049e-07
5.71307833510701e-07
5.75143069292511e-07
8.50186624571666e-07
8.29221227197438e-07
1.03632921752482e-06
8.96808150913526e-07
8.74092919349263e-07
3.64971885658661e-07
2.34317546798804e-07
-6.86062531495891e-07
-1.83147429890881e-06
-3.23704575437884e-06
-5.45663846136628e-06
-7.92548237455972e-06
-1.31488996973958e-05
-1.47834296179976e-05
-1.60153685363965e-05
-2.10945689759135e-05
-1.06378788567906e-05
-1.31377598685802e-05
1.01384620883977e-06
-2.3774168722504e-05
-0.000267747072244553
-0.000619307887727545
-0.000121926447665476
-0.000186443917351372
-1.48259330777565e-05
-0.00018059703571111
0.000113799819692381
-3.12805029000725e-05
5.47869593382074e-07
-1.40969071528777e-07
8.99443027130067e-08
-4.57826725130058e-08
1.72599403334521e-08
2.40519279518966e-08
8.83495312328416e-08
2.85044212254444e-07
5.20204035297015e-07
7.56414871590909e-07
6.26933809118664e-07
3.34291539061746e-07
4.63356771034155e-09
-2.01423941767003e-07
-3.98557695773458e-07
-5.09247747128339e-07
-5.88877283233243e-07
-7.70515213397689e-07
-1.04483714787123e-06
-9.89655173358973e-07
-2.48042794069921e-06
-8.999805584967e-07
-2.97077629996926e-07
-8.58184014480739e-08
7.44942959162665e-09
1.08757724950398e-08
1.38436936125233e-08
1.5240478183304e-08
2.04226277729124e-08
2.81633575342815e-08
3.8430806667411e-08
5.01859887955916e-08
6.30587200383016e-08
7.63756985604899e-08
8.97678201179228e-08
1.02878812812714e-07
1.15741136451464e-07
1.27933658115188e-07
1.39381325199367e-07
1.49818906641698e-07
1.59141879506834e-07
1.67282166118632e-07
1.74202632415457e-07
1.79887415533133e-07
1.84346893201979e-07
1.87608881389364e-07
1.89717533443287e-07
1.90730066550222e-07
1.90714373008187e-07
1.89742243037723e-07
1.87901626541504e-07
1.85258452205495e-07
1.81923650196494e-07
1.77936511342385e-07
1.7342102063739e-07
1.68413805277847e-07
1.63037754085753e-07
1.57305355252374e-07
1.51348670532881e-07
1.45143093217803e-07
1.38822716304718e-07
1.32346684320237e-07
1.25808238610282e-07
1.19181848724677e-07
1.12539751663745e-07
1.05859200137744e-07
9.91848192205326e-08
9.25065814959645e-08
8.58111932105482e-08
7.9125984576223e-08
7.23612278837412e-08
6.56024631212019e-08
5.86194419845685e-08
5.19388834818245e-08
4.4763485657752e-08
3.75658834794049e-08
2.90130044137394e-08
2.1431999882688e-08
1.18933697464256e-08
4.14165040626049e-09
-6.98199424921806e-09
-1.6762786113072e-08
-2.89670666116897e-08
-5.06744468728421e-08
-2.64122721110545e-08
-2.22111504528197e-07
1.2025878456084e-07
-3.36761259125779e-07
1.90772162096267e-07
-9.52373799962324e-08
1.86669605240845e-07
1.24465203596891e-07
3.61164078741742e-07
3.13488353978928e-07
5.9145711888877e-07
5.88510736370515e-07
8.37290579517797e-07
7.15919961685318e-07
1.16770105227473e-06
1.04951079308227e-06
1.0797158662013e-06
1.32386947066106e-06
1.42086041460623e-06
2.00866295484484e-06
6.83295303965709e-07
3.15019691853659e-06
6.70740110856424e-06
4.20006537031893e-06
1.65165631895879e-05
2.68421095597066e-06
2.13016802154599e-05
4.07542761838538e-07
-7.61852797756144e-06
-0.000202673589826593
-2.46453299606708e-06
-7.1817571011402e-05
7.11917821472058e-05
-0.00013398962007019
-3.92665261460205e-05
2.28528076622317e-05
5.67470182390037e-08
-9.36302206340806e-08
1.3642539663051e-07
3.06036784084801e-08
1.59530840259333e-07
2.09223938568766e-07
2.86114347243693e-07
3.79052052890665e-07
2.8545974698932e-07
1.11453792942387e-07
-1.5018863590259e-07
-2.54961617789985e-07
-2.64364792124526e-07
-2.1808177539299e-07
-2.17521376020971e-07
-1.97260367308966e-07
-1.66212437939813e-07
-1.94951940448935e-07
-2.43545151365579e-07
-1.39410540640349e-08
-6.78246236682868e-07
2.31389994650836e-07
1.46034593467271e-07
5.05524008593261e-08
5.34346635291303e-08
3.80503102352497e-08
4.19514144758639e-08
4.36889932297389e-08
4.95611497224983e-08
5.4563087539634e-08
6.04853922101221e-08
6.58202173909564e-08
7.11411680354596e-08
7.59083797419623e-08
8.02076829946189e-08
8.3978839457125e-08
8.73091336565699e-08
9.0101702299492e-08
9.247352596804e-08
9.43121178616984e-08
9.56512441708952e-08
9.6492224134511e-08
9.68542535725602e-08
9.67518968762501e-08
9.6210596601412e-08
9.52572114293894e-08
9.39229153866353e-08
9.22420488519447e-08
9.02520992954771e-08
8.79862935381751e-08
8.54958469515007e-08
8.27940666056351e-08
7.99601764465512e-08
7.69679140745437e-08
7.39155922480698e-08
7.07785376407319e-08
6.76577189489873e-08
6.450308001509e-08
6.14358270964495e-08
5.83691268518892e-08
5.54378902286671e-08
5.25507978279868e-08
4.98005949351872e-08
4.71288707647147e-08
4.46086892662149e-08
4.21950237005484e-08
3.99317240223106e-08
3.77993597765621e-08
3.57808889554733e-08
3.39121481888708e-08
3.20689594670521e-08
3.04048209790844e-08
2.877530063899e-08
2.75730300313251e-08
2.57582681096997e-08
2.44926541979289e-08
2.23051576831471e-08
2.1540126494822e-08
1.87977767404585e-08
1.841974969928e-08
1.48854711352898e-08
1.38276286553549e-08
1.1976730721219e-08
1.22377556173535e-09
5.07435246622563e-08
-1.42586799080768e-07
2.416087638704e-07
-2.87042584114863e-07
2.65805832697284e-07
-8.84612700641471e-08
1.99757459340018e-07
9.07007672103943e-08
3.08639405149498e-07
1.98039965221955e-07
4.5251409706955e-07
3.92421854316933e-07
6.40285226011179e-07
5.05894925629272e-07
1.04216061229962e-06
9.91892967264847e-07
1.19010293216101e-06
1.6933276247691e-06
2.15560904279205e-06
3.217722714602e-06
2.11286288905976e-06
4.8006647775823e-06
8.3275965635477e-06
3.20403825437052e-06
1.57977893328707e-05
-7.93662485935268e-06
3.02627578203345e-05
6.31901842462397e-07
1.98926534802431e-05
-4.40819432426943e-05
1.4441960064e-05
-4.04282592504097e-05
6.77690679407407e-05
-7.35490320954296e-05
-1.15166377841888e-05
3.43062404002939e-05
-4.12567386136539e-07
4.2503043702783e-08
7.23947790142735e-08
4.46153987894327e-09
1.24873506920683e-07
1.36697263226207e-07
1.02630688322449e-07
4.53093366996884e-08
-1.04549859220036e-07
-1.55888651514135e-07
-1.68132139533779e-07
-1.12046626198013e-07
-6.52135331325688e-08
-2.71831696942093e-08
-2.61122443136525e-08
-1.50183011496538e-08
7.56461854618539e-09
-9.52648011745636e-11
-8.9011163919851e-09
1.5726433242935e-07
-2.70398745078479e-07
2.21690737520628e-07
9.10386315587263e-08
1.80745280482942e-08
3.56733870250413e-08
1.91620794433615e-08
2.60281416806365e-08
2.34313195161402e-08
2.66005968427122e-08
2.70203418454555e-08
2.8958611757606e-08
3.00058154954336e-08
3.1455016677282e-08
3.24717464132004e-08
3.34864015315478e-08
3.43261479444662e-08
3.51684522507705e-08
3.58388895254913e-08
3.65295200161435e-08
3.71240301545413e-08
3.76719919247417e-08
3.81547279998577e-08
3.8579131463951e-08
3.89360431498936e-08
3.9226149320249e-08
3.94467547543159e-08
3.95970392334317e-08
3.96773933844177e-08
3.96903435362634e-08
3.96308903246597e-08
3.95191718045775e-08
3.93227743355839e-08
3.91027341549953e-08
3.8777241897967e-08
3.84363556772674e-08
3.80062990399998e-08
3.75859230240474e-08
3.70758741664263e-08
3.66067627312973e-08
3.60400879722392e-08
3.55301509616257e-08
3.49433739935874e-08
3.43864266660903e-08
3.37739359965931e-08
3.31905975409555e-08
3.25762123267294e-08
3.1983698974125e-08
3.13908043716725e-08
3.07820129314222e-08
3.01911531987128e-08
2.94907874202791e-08
2.89816668910459e-08
2.83435897433881e-08
2.78929488730788e-08
2.67734194890393e-08
2.64212985805245e-08
2.49230748553e-08
2.499436387701e-08
2.27771048500373e-08
2.33356773338123e-08
2.04340826514188e-08
2.07027332197256e-08
2.06755114651374e-08
1.06015997776278e-08
7.19763039417407e-08
-1.39373298711218e-07
2.91187927469347e-07
-2.9366456145388e-07
3.27351939843525e-07
-9.46058292216852e-08
2.21677675994798e-07
7.2506027913252e-08
2.90384737005545e-07
1.27248705991749e-07
3.71389822197539e-07
2.41255446976749e-07
4.69265103371206e-07
2.64895951686007e-07
8.08100722531264e-07
6.67634320733267e-07
8.13142663256649e-07
1.24594933581702e-06
1.55892088188011e-06
2.42963009585944e-06
8.36741838199014e-07
3.4005979549781e-06
7.15918193813867e-06
-2.09890083516934e-06
1.29993381112986e-05
-2.05829944831025e-05
3.31685447585203e-05
-2.34210447758687e-06
1.0945345987448e-05
-2.14662385662815e-05
1.20082237254556e-05
-2.90962781918045e-05
5.39162756355685e-05
-5.85469060868202e-05
6.37489344515593e-06
-2.36763680858225e-05
-6.88598831728252e-06
5.01600104859178e-08
2.87587335368662e-08
-4.63234430888329e-08
1.24124573871244e-08
-4.17353907185777e-09
-5.53811350136764e-08
-8.17362829834905e-08
-1.16282141224052e-07
-7.30994088835661e-08
-4.43607156531165e-08
-1.44741379060399e-08
-2.12499928476326e-09
7.41210663061709e-09
1.25210529244882e-09
2.16510323107387e-09
1.3104213056336e-08
6.38838591573511e-09
-4.57815148226749e-10
9.78682849574133e-08
-1.98483844247175e-07
1.32633176731811e-07
4.89691812331659e-08
-2.08485032389803e-09
2.44188051467447e-08
4.24363077783457e-09
1.4515375267471e-08
9.90846627432402e-09
1.36846576205636e-08
1.32620859595337e-08
1.51715031941299e-08
1.58845583622394e-08
1.73003041016313e-08
1.82223760254203e-08
1.94193998051657e-08
2.04536699290753e-08
2.15981639851461e-08
2.2596423217279e-08
2.36949038223946e-08
2.47200675064469e-08
2.57379881615145e-08
2.67118761833229e-08
2.76463993825284e-08
2.85229398117135e-08
2.93372278521655e-08
3.00806322889161e-08
3.07473239423515e-08
3.13334001908781e-08
3.18379160071889e-08
3.22498829357772e-08
3.25923054283664e-08
3.28181232861943e-08
3.30056002720411e-08
3.30440605211054e-08
3.30485509078326e-08
3.29181775901544e-08
3.27789282880968e-08
3.24998433060369e-08
3.22463007087397e-08
3.18387566761269e-08
3.14722708215373e-08
3.09770173862836e-08
3.04891046980994e-08
2.98992964126223e-08
2.93123161678507e-08
2.865450418536e-08
2.79929003568885e-08
2.73019979073519e-08
2.65608371265594e-08
2.58023741838394e-08
2.4959956346454e-08
2.43401497307681e-08
2.337824148434e-08
2.26641116743252e-08
2.13199681259205e-08
2.0863880414357e-08
1.9048099657867e-08
1.90532934920502e-08
1.64401598151896e-08
1.71344614864906e-08
1.38161132818986e-08
1.43851288759207e-08
1.44633192865911e-08
2.99993186875815e-09
7.31998276922179e-08
-1.63145976165279e-07
3.12259776810924e-07
-3.48769388029972e-07
3.64198495104588e-07
-1.36542905536669e-07
2.18815989768746e-07
2.79416485635315e-08
2.55065163632767e-07
4.47919555775212e-08
2.9863432135624e-07
1.10278782985138e-07
3.42829619770415e-07
8.19688268015545e-08
6.56417485340164e-07
4.25153879083734e-07
5.23954821498148e-07
8.82526101539106e-07
1.00241619459008e-06
1.66745479076395e-06
-3.8217108466824e-07
2.75310123802552e-06
2.05248668960366e-06
-1.23549092721014e-05
8.36336946170814e-06
-2.8175667860399e-05
3.70225770944251e-05
-4.55356503166383e-06
7.2336461358394e-06
-1.78945028492486e-05
1.002921070972e-05
-2.20915251541246e-05
4.56536877504525e-05
-5.4472884862111e-05
-1.21354505708583e-05
3.69980622879056e-06
-8.65450379856165e-06
1.12491294428511e-09
4.77183438708302e-08
-3.97820628610704e-08
-1.49868089270067e-08
-2.66221499163174e-08
-5.15104250675817e-08
-4.46333008777519e-08
-4.38956755520285e-08
-1.34507774100084e-08
-5.47129615247805e-09
1.53698481688219e-09
2.3927051041593e-09
4.87495752191952e-09
1.09473001267757e-10
-9.35907404564306e-10
5.62154312354093e-09
1.10414734294308e-09
-3.22064263229098e-09
5.74649941651e-08
-1.49825116551435e-07
1.0431601301167e-07
4.15759987821165e-08
-1.54076255494228e-09
2.57369524491306e-08
2.14046230879261e-09
1.4789330626399e-08
8.61403554737344e-09
1.32799827242885e-08
1.24126941744013e-08
1.45979013028272e-08
1.5189866284131e-08
1.6650309301959e-08
1.7451131018811e-08
1.86289180916695e-08
1.95512033189934e-08
2.06210873126528e-08
2.14669433656283e-08
2.24179751241069e-08
2.32557732094795e-08
2.40770412057904e-08
2.48348161136289e-08
2.55425799435062e-08
2.6181066645343e-08
2.6750186753107e-08
2.72435922658363e-08
2.76580575266067e-08
2.79925161840382e-08
2.82489560415734e-08
2.8415793318152e-08
2.85250500936063e-08
2.85172116220217e-08
2.84957506643905e-08
2.83190159666995e-08
2.81356966842837e-08
2.78134229924877e-08
2.75129062929228e-08
2.70669640602784e-08
2.66839408149828e-08
2.6135147908831e-08
2.56656342772035e-08
2.50606332222257e-08
2.44930918592869e-08
2.3823233751062e-08
2.31780221909519e-08
2.24660560693278e-08
2.17705813552882e-08
2.10546079139128e-08
2.02763015286705e-08
1.95426595747341e-08
1.87771962226676e-08
1.81628115181927e-08
1.71510607146336e-08
1.6558529902532e-08
1.52668118745544e-08
1.50080349489191e-08
1.31876904700806e-08
1.35219191194591e-08
1.08217416236856e-08
1.20768518418214e-08
8.53079926354204e-09
9.88084238162505e-09
1.00049246500211e-08
-2.28508841767287e-09
7.69529338012547e-08
-1.86032836146569e-07
3.42461771875035e-07
-4.18223089159273e-07
4.09930505460128e-07
-1.8255399053041e-07
2.22502608148025e-07
-1.20837462726925e-08
2.32908033407628e-07
-2.13025865112724e-08
2.59950066597075e-07
2.31790432185205e-08
2.83205071079079e-07
-1.98468136497747e-08
6.15683133985015e-07
3.15118132859695e-07
4.1433812463952e-07
7.56748241335621e-07
7.78622241862689e-07
1.51392709005094e-06
-3.01743909609087e-07
-1.3979723236858e-06
-6.65979688199573e-06
-4.12082890017002e-05
3.51752412605265e-06
-3.11928328704863e-05
4.10210533908805e-05
-5.89975336979991e-06
6.60298811676606e-06
-1.47546610675612e-05
8.62471653481623e-06
-1.79502112096992e-05
3.90870168408268e-05
-4.70340438296912e-05
7.76436931923682e-06
1.44667590353731e-05
1.93092890516099e-05
-1.05944146398416e-07
8.23143727919551e-08
-2.08980059908094e-08
-6.59851247023433e-09
-9.11516786304622e-09
-1.99876003867901e-08
-1.18418846976463e-08
-1.30277381376108e-08
3.50970631491065e-10
1.89491933795072e-10
1.92435015685987e-09
1.46982964486475e-09
2.75132969710817e-09
-2.15487251983592e-10
-1.23308346033819e-09
3.32276484460241e-09
4.87282447040763e-10
-1.64099006554674e-09
3.69985341000268e-08
-1.15014419400112e-07
9.41494417519905e-08
3.83862066637499e-08
2.99264820610622e-09
2.55820375432541e-08
8.04486949909785e-10
1.44851602964505e-08
6.97552467083044e-09
1.21765132017424e-08
1.07397079129561e-08
1.300366750673e-08
1.33215099717318e-08
1.46418251602733e-08
1.51997867958571e-08
1.62215089238076e-08
1.69073591889958e-08
1.77961330088459e-08
1.83953085317876e-08
1.91320996035415e-08
1.97376339036457e-08
2.03432246301507e-08
2.08876492867186e-08
2.13934083441217e-08
2.18381806292247e-08
2.22246903463738e-08
2.25470715561681e-08
2.28029121436936e-08