/*--------------------------------*- C++ -*----------------------------------*\
| =========                 |                                                 |
| \\      /  F ield         | OpenFOAM: The Open Source CFD Toolbox           |
|  \\    /   O peration     | Version:  2.4.0                                 |
|   \\  /    A nd           | Web:      www.OpenFOAM.org                      |
|    \\/     M anipulation  |                                                 |
\*---------------------------------------------------------------------------*/
FoamFile
{
    version     2.0;
    format      ascii;
    class       volSymmTensorField;
    location    "18000";
    object      Rall;
}
// * * * * * * * * * * * * * * * * * * * * * * * * * * * * * * * * * * * * * //

dimensions      [0 2 -2 0 0 0 0];

internalField   nonuniform List<symmTensor> 
15600
(
(0.000110205797807229 -2.94879831007598e-06 -1.03516477623784e-25 0.000110224872256895 1.13444063229157e-26 0.000109861111093412)
(0.000138024573419681 -4.07760099591273e-06 -1.41494567132441e-24 0.000138362712835226 -2.44623724969524e-24 0.000137636431044769)
(5.32691626240404e-05 -1.04218582420516e-06 -1.79356164166798e-25 5.36993355972513e-05 1.19383030326525e-26 5.33913291884987e-05)
(7.90418827985913e-06 -2.59803235310876e-09 1.71986410921445e-22 7.89665335370778e-06 6.10155656279375e-22 7.89950607489824e-06)
(2.17538453621363e-05 1.32815140325471e-07 3.89184296012729e-22 2.14288601027963e-05 7.32412997982584e-22 2.15793697685764e-05)
(1.14659852654392e-05 3.9834570103187e-08 -9.02957145476579e-25 1.13090430755841e-05 -2.37059201555217e-25 1.13835720743119e-05)
(4.51586651838301e-06 7.07315122483785e-09 -6.48627323188503e-26 4.47359871498541e-06 -8.78523717428594e-26 4.49406423999163e-06)
(2.51602534891312e-06 2.18702370176827e-09 -3.49955285405236e-25 2.49744809393638e-06 3.02116913296537e-26 2.50649560369332e-06)
(1.44381025479351e-06 7.88126215489315e-10 7.32192637187258e-24 1.43529207406369e-06 -4.17632180657633e-24 1.43946802125103e-06)
(9.37759314724248e-07 4.05875758050014e-10 3.76784474918076e-24 9.3304790836149e-07 -2.7606041505903e-24 9.35364267043345e-07)
(6.16288861367497e-07 2.4966271803351e-10 1.75408023100382e-26 6.13618179988228e-07 -5.61753416679431e-28 6.14937226331736e-07)
(5.03102914407408e-07 2.1419157876528e-10 2.92821160338394e-31 5.01023141512019e-07 -2.43003070897849e-30 5.02052733750411e-07)
(4.74340357528196e-07 2.21086308967003e-10 4.13834917736709e-28 4.72338886402035e-07 -2.1285511499981e-29 4.73331502234933e-07)
(5.4462623567494e-07 2.97347835491934e-10 1.16208314104625e-26 5.42048110492547e-07 1.36278550486094e-26 5.43327039162178e-07)
(7.52204297784474e-07 5.1814692632437e-10 -2.99657315866303e-27 7.47851105797641e-07 -2.70328960439225e-26 7.50005592522094e-07)
(1.16249686426739e-06 1.05353315320304e-09 5.55235891255686e-28 1.15387901460987e-06 -1.10117558830429e-29 1.15812476853869e-06)
(1.80113615970293e-06 2.16363624896441e-09 2.90670616906457e-26 1.78413904105019e-06 -4.7994773987286e-26 1.79246015555957e-06)
(2.62582191006541e-06 4.26237958458223e-09 -1.12480696440114e-25 2.59532724329513e-06 2.73612125366012e-26 2.61015634852852e-06)
(3.59928779663383e-06 8.02245809718842e-09 1.10205223916841e-25 3.54966462201487e-06 9.91245120596904e-26 3.57362333270271e-06)
(4.58506142059506e-06 1.40035697198761e-08 8.93375590380385e-26 4.51328749411305e-06 1.73749883372969e-25 4.5476984165895e-06)
(5.37416068230907e-06 2.20669269779952e-08 -2.28695373114504e-25 5.28360549631402e-06 2.53511993524988e-25 5.32673827437802e-06)
(5.91537226049579e-06 3.18985314366733e-08 3.30620465544763e-25 5.81357662915093e-06 -2.98404054791742e-25 5.86175857042874e-06)
(6.33052454620533e-06 4.32830182654611e-08 -4.5942156704061e-25 6.2245608555837e-06 -6.4938266479464e-25 6.27432577487916e-06)
(6.53967816262684e-06 5.39153596090986e-08 -2.92034435027158e-25 6.43989313077047e-06 -6.38976448905269e-25 6.48627851594334e-06)
(6.47035736172641e-06 6.09608122084065e-08 -9.84924235854305e-26 6.38798065738139e-06 -4.64438966532093e-25 6.4257110605101e-06)
(6.21106607413881e-06 6.36744222562462e-08 5.89676762843335e-24 6.152985465974e-06 2.79144774097826e-25 6.17894127421389e-06)
(5.42242100916538e-06 5.69522419948763e-08 3.11668237317857e-23 5.39227604342323e-06 -1.45502995471241e-23 5.40475661013801e-06)
(6.40913650937044e-06 8.03887143351333e-08 3.37136912968441e-23 6.3915796663634e-06 -6.82513271708529e-24 6.39617647182553e-06)
(1.28536019102935e-05 2.3055688624599e-07 -1.03913055892899e-23 1.28359913033609e-05 -3.1576572565833e-26 1.2826373345318e-05)
(2.24046386308925e-05 5.17377077936297e-07 4.88621744910645e-32 2.23785240397669e-05 1.45870381034086e-33 2.23366670796707e-05)
(3.16304636037862e-05 8.51722546643592e-07 2.84907760904174e-23 3.16007475581941e-05 1.5118012266803e-24 3.1509588760688e-05)
(4.08042943337286e-05 1.22783853784312e-06 7.45292680254644e-22 4.07724376113509e-05 9.71172358374099e-23 4.06166891323172e-05)
(4.93918979771563e-05 1.61253468179538e-06 8.87085027753359e-22 4.93596837883285e-05 1.60231912653576e-22 4.91305839171968e-05)
(5.74338201797946e-05 1.99689274476597e-06 -6.19662828694749e-23 5.74022065829273e-05 -5.94851637907312e-24 5.70940540102641e-05)
(6.48517092245132e-05 2.36875524973141e-06 3.55546079689281e-27 6.48214386985227e-05 2.07441777058914e-26 6.44323893328135e-05)
(7.16727744529516e-05 2.72271256717636e-06 5.74919999629789e-27 7.16443847111648e-05 3.22532088596231e-26 7.11749534098849e-05)
(7.78858980595062e-05 3.0527888714917e-06 -3.87707654306793e-27 7.78598275541809e-05 -3.41432708421479e-26 7.73129800588034e-05)
(8.3500626739978e-05 3.35515495705716e-06 -2.33339466020302e-22 8.34772321470362e-05 -3.12229084178002e-23 8.28577681204155e-05)
(8.85148438529136e-05 3.62619746368793e-06 -2.32591570164386e-21 8.84944179767196e-05 -6.72842434150929e-22 8.7808830392409e-05)
(9.29319780170332e-05 3.86331902402742e-06 -1.95042069287433e-21 9.29147532400048e-05 -7.64773193486532e-22 9.21708587610954e-05)
(9.67552386114651e-05 4.06450884863556e-06 3.12007350435984e-22 9.67413834704181e-05 4.61212122732906e-23 9.59480684521988e-05)
(9.99945195285172e-05 4.22866213647574e-06 8.02172870861326e-27 9.99841381582627e-05 8.52911162645847e-27 9.91510098229983e-05)
(0.000102663658264196 4.35539600178981e-06 -2.73402173647079e-26 0.000102656799867613 -6.41330952152399e-26 0.000101793877173124)
(0.00010477172120244 4.44462001252656e-06 4.0377874565866e-26 0.000104768433454442 1.27396502161636e-25 0.000103885891367234)
(0.000106297910464336 4.4951987467027e-06 -2.46233716028885e-26 0.000106298164915922 -8.39113131019528e-27 0.000105406495207564)
(0.000107221893937177 4.50671735516507e-06 7.28284147538578e-22 0.000107225555280136 1.18367408006299e-22 0.000106335254394076)
(0.000107601202348668 4.48261641961803e-06 3.56555579572457e-21 0.000107608079776423 1.70035586201094e-21 0.000106728698160271)
(0.000107463308076636 4.42533374933326e-06 2.05270184561544e-21 0.000107473160651095 1.64691040201416e-21 0.000106613412540838)
(0.000106842124849789 4.33786677533558e-06 -7.91012015895484e-22 0.000106854672492934 -1.27220723445746e-22 0.000106022248210254)
(0.000105774453760746 4.22351614460568e-06 -2.21162059308033e-26 0.000105789390593343 -5.49774768617229e-26 0.000104990851608045)
(0.000104299462208139 4.08579084589808e-06 2.13298780839163e-26 0.000104316465573865 1.10277743501613e-25 0.000103557187440194)
(0.000102457955628032 3.92830671871342e-06 1.01683123463889e-21 0.000102476695041587 1.62559441085751e-22 0.000101760855137001)
(0.000100291661100275 3.7546921452638e-06 3.38867952264278e-21 0.000100311806472063 2.04669666147895e-21 9.96424116541867e-05)
(9.78425364886578e-05 3.56850309366208e-06 1.27127209371194e-21 9.78637655661791e-05 1.80879630659208e-21 9.72427135005267e-05)
(9.51520792816283e-05 3.37314733923944e-06 -1.00473924407418e-21 9.51740841989157e-05 -1.51970278615688e-22 9.46022519270774e-05)
(9.22606586701233e-05 3.17182023650611e-06 -2.78543569127238e-27 9.22831513268033e-05 9.30624372117059e-28 9.17605041516497e-05)
(8.92069297184099e-05 2.96745538025058e-06 1.97515978894068e-27 8.92296457590775e-05 1.59197145061315e-27 8.87553591776235e-05)
(8.60273261114816e-05 2.76268930921217e-06 -3.00331078194417e-27 8.60500276160484e-05 -1.18539233846879e-26 8.56226153280919e-05)
(8.27558027884465e-05 2.55984738493622e-06 -5.37641650893058e-27 8.27782788066765e-05 -1.87770089930245e-26 8.23957204213651e-05)
(7.94237656467615e-05 2.36094305891901e-06 3.16382342985441e-27 7.944583255399e-05 1.51913509379872e-27 7.91056946080906e-05)
(7.60602206543892e-05 2.16769162543687e-06 -1.528669375874e-27 7.60817201392053e-05 7.48794861289015e-27 7.57812687709362e-05)
(7.2692031169892e-05 1.98152674198854e-06 -2.50140781725809e-27 7.27128310372068e-05 -2.52259982088977e-26 7.24491313879309e-05)
(6.93434959515129e-05 1.80359440231778e-06 8.36426493622141e-28 6.93634896351127e-05 -1.38638562179465e-26 6.9133498692545e-05)
(6.60361302600926e-05 1.63476103077109e-06 1.92477811923588e-27 6.60552370490804e-05 2.98602336956621e-26 6.5855884180055e-05)
(6.2788317358348e-05 1.47562444636257e-06 3.38437386976577e-27 6.28064799278253e-05 4.14897526913346e-28 6.26347376228355e-05)
(5.96153255101864e-05 1.32654007253686e-06 1.58827696420285e-27 5.9632508578436e-05 3.32427869147e-26 5.94854478303114e-05)
(5.65292170516219e-05 1.18764874989277e-06 -7.44590888495915e-27 5.65454029194654e-05 -3.23741745216405e-26 5.64202379460676e-05)
(5.35393272675148e-05 1.05891894847036e-06 2.90067981285372e-27 5.35545136190674e-05 3.19668381499288e-28 5.34486307661466e-05)
(5.06523973554375e-05 9.40177968979317e-07 0 5.06665924015568e-05 0 5.05775708057396e-05)
(4.78736447114123e-05 8.31161787904424e-07 0 4.78868650011061e-05 0 4.78124842727149e-05)
(4.52070268137215e-05 7.31533454785838e-07 0 4.52192955605813e-05 0 4.51575384035541e-05)
(4.26554608490116e-05 6.40897961650794e-07 -9.25759197251872e-22 4.26668078707176e-05 -9.3239930610013e-23 4.26158571330015e-05)
(4.02205126979561e-05 5.58806451215117e-07 -2.11648046258883e-21 4.02309732349181e-05 -5.82173300830159e-22 4.01892071755875e-05)
(3.79024108662411e-05 4.84770137651123e-07 -5.96267467675813e-22 3.79120246342466e-05 -5.10792511995971e-22 3.78780084984972e-05)
(3.56998752286053e-05 4.18271261767585e-07 1.34829871300703e-21 3.57086843622783e-05 4.57521748252438e-23 3.56811603180237e-05)
(3.36105911852546e-05 3.58786363513578e-07 7.59775772571134e-22 3.36186383390175e-05 6.71683758137459e-23 3.35965127554435e-05)
(3.1631543202344e-05 3.05798145170783e-07 -1.39440493129663e-26 3.16388706892072e-05 -9.20857291264838e-26 3.16211999132875e-05)
(2.97593367622545e-05 2.58807087153279e-07 8.1371640728966e-28 2.97659857121381e-05 1.93632405707745e-28 2.97519619601645e-05)
(2.79901204308546e-05 2.17329692756842e-07 -7.07855855407842e-22 2.79961309302526e-05 -5.99534958334036e-23 2.79850677932693e-05)
(2.63197258199499e-05 1.80910786349477e-07 -7.6544012197056e-22 2.63251354285993e-05 1.22217072489781e-22 2.63164554679393e-05)
(2.47433403932594e-05 1.49113515849674e-07 5.54683882970562e-22 2.4748184689971e-05 4.32819902071578e-22 2.47414056173884e-05)
(2.32558950017323e-05 1.21546377168665e-07 5.93006733121198e-22 2.32602042484258e-05 4.60686826805442e-23 2.32549296133847e-05)
(2.18518025972866e-05 9.78381282915654e-08 5.31776477777416e-27 2.1855604065032e-05 -7.2426383811705e-26 2.18515092639154e-05)
(2.05255135216843e-05 7.7685331904919e-08 5.63705871895251e-28 2.0528825667055e-05 -1.26918100396165e-26 2.05256532987815e-05)
(1.9271138567923e-05 6.07961215192676e-08 1.22501843203697e-27 1.92739777429675e-05 7.84773020050258e-26 1.92715212189078e-05)
(1.80824128456563e-05 4.69727201013448e-08 -1.47523721540887e-26 1.80847808967721e-05 2.65849087021567e-25 1.80828879997524e-05)
(1.69538128028315e-05 3.60229488959162e-08 -4.60616438858066e-27 1.69557075750958e-05 -3.73335685519539e-25 1.6954262603912e-05)
(1.58763091933099e-05 2.78632617049052e-08 3.40632244037299e-26 1.5877702319673e-05 1.15608405210128e-25 1.58766378989991e-05)
(1.48468857797719e-05 2.24570750034725e-08 -2.99362098825828e-26 1.48477482198288e-05 1.05912309359508e-25 1.48470164972354e-05)
(1.38576949884504e-05 1.98218272716234e-08 -2.78720768806724e-27 1.38579642081982e-05 -3.23527178175844e-25 1.38575506204614e-05)
(1.29480833598585e-05 2.0208153807782e-08 2.09833462647995e-26 1.29476861333671e-05 3.24358686671666e-25 1.29475985723105e-05)
(1.19074310146906e-05 2.34167832451497e-08 -9.42663336704505e-27 1.19059841615596e-05 -1.06590489102554e-25 1.19062902577703e-05)
(1.18304883912903e-05 3.52491976913245e-08 -8.7461287783635e-27 1.18337544357879e-05 -8.55129321980452e-28 1.1831667299581e-05)
(1.26597049211608e-05 3.97727574980177e-08 2.45979178583536e-24 1.26800377359244e-05 1.54416613402309e-25 1.26694228972254e-05)
(1.31713343583499e-05 3.35717956885818e-08 -5.14671646089121e-24 1.3201922442295e-05 2.50497160082537e-23 1.31868703783527e-05)
(1.3707216818012e-05 2.37010615468004e-08 1.08214188890855e-23 1.37397075049546e-05 -2.87838632963218e-23 1.37241706038126e-05)
(1.37238120316895e-05 9.28954271191135e-09 -3.37772804584939e-23 1.37421536961572e-05 9.93422573663592e-23 1.37342517191179e-05)
(1.3453293992401e-05 -4.62765132337162e-09 -2.76569487358676e-23 1.3444445013777e-05 3.99862355025032e-23 1.34502902912182e-05)
(1.33447822599516e-05 -1.68451938536613e-08 2.02449648244006e-23 1.3296106384899e-05 -3.60171824724256e-23 1.33216355707765e-05)
(1.66876951931337e-05 -3.44420718178639e-08 -2.54764227907566e-23 1.65590704925729e-05 3.94324343589283e-23 1.66235323259285e-05)
(2.14942669799659e-05 -5.8495441470147e-08 -1.22506801581914e-23 2.12235736299245e-05 4.94860656446217e-24 2.13558091230032e-05)
(2.79967752471206e-05 -9.15978947796416e-08 4.82727388739743e-23 2.74926812272919e-05 -4.99600126644972e-23 2.77337732188021e-05)
(3.63650843102279e-05 -1.36960722670334e-07 -4.78141065730283e-23 3.55054195561882e-05 6.54642929179844e-23 3.59089183569379e-05)
(4.67609165188031e-05 -2.00574133895447e-07 7.23379901518519e-24 4.53911185724178e-05 3.32396228508243e-25 4.60225043385155e-05)
(5.77427271184596e-05 -2.78303024351799e-07 -6.22471104608732e-23 5.57598120681051e-05 7.67278640503846e-23 5.6660036799381e-05)
(6.85567445617465e-05 -3.55952642274098e-07 -1.34829902733842e-24 6.59189122153763e-05 -1.37631634967973e-23 6.71019680446898e-05)
(8.03774037304647e-05 -4.32113839982315e-07 -2.34888507144104e-24 7.69951297036778e-05 -1.63574998884626e-23 7.84964702992429e-05)
(9.43690814058738e-05 -5.08707763515558e-07 -3.72627104969784e-24 9.00825733415548e-05 -1.92571776735553e-23 9.1967589838356e-05)
(0.000112578026655362 -5.93412922003213e-07 -1.2824235857152e-22 0.000107082339089074 7.85464644527877e-23 0.000109475994318123)
(0.000139167720385009 -7.0501069256425e-07 -1.10510599199232e-23 0.000131833523707206 2.6474610235254e-23 0.000134991809525509)
(0.000186123330896172 -9.5592230291747e-07 -8.85891669989153e-23 0.000175264649606467 1.45082812029689e-22 0.00017985521967564)
(0.000264022222117527 -1.64953328890412e-06 -1.220829168899e-22 0.000246539898389721 1.0870221843392e-22 0.000253731341740211)
(0.000380357574379756 -3.40893320356284e-06 1.11145664209515e-22 0.000351575601178569 -1.12578314706899e-22 0.000362989868052648)
(0.000572635892145141 -8.3155775520802e-06 1.64495504539857e-23 0.000522488797126472 7.8324587967303e-25 0.000541247962953288)
(0.00086062599018024 -2.14814228132159e-05 -2.14993542658142e-23 0.000775120399904705 3.2092256690165e-23 0.000804153931040987)
(0.00121540989434643 -5.24751081334569e-05 -2.05689854213684e-22 0.00109001588557058 2.3058947743562e-22 0.00112457061642104)
(0.00105304765049765 -6.24981356207336e-05 2.5703315411105e-22 0.00097520681867177 -3.71713931290759e-24 0.000988626135844472)
(0.000503799229888993 -2.76524434267307e-05 -9.51009756347308e-24 0.000488410958873376 2.42813532763464e-24 0.000488228575903527)
(0.000155689065179246 -5.68822347440513e-06 1.23723098009351e-24 0.000154817151190447 -6.24005476103436e-24 0.000154278876693919)
(8.49769877138155e-05 -2.20719282102451e-06 1.65742054206212e-25 8.49409252219549e-05 -2.09649985292497e-26 8.46957271645985e-05)
(0.000711081166165437 -0.000115605094692297 -4.50424305418557e-26 0.000713535315203576 5.02584389214407e-26 0.000620423877550445)
(0.000604599225477683 -9.53883578874944e-05 -1.22429850182369e-22 0.000611949312629077 1.44609897031522e-22 0.000535096806844293)
(0.000312268772465306 -3.94669575764283e-05 6.22421327725781e-21 0.000325259597454501 -4.02710440403499e-21 0.000294699180079617)
(0.000101320583537292 -5.00722585074965e-06 1.24836606121289e-20 0.000104482763454841 -3.7102655351093e-20 0.00010168296305732)
(1.78401257222985e-05 2.61523242883869e-07 -5.46194862947687e-21 1.69610902401833e-05 -1.77667551226601e-21 1.73434566059638e-05)
(4.89197952261842e-06 7.76670960947475e-08 -6.01256233163819e-23 4.5929715327542e-06 -4.15696347989109e-24 4.71618433656575e-06)
(2.53749809297646e-06 2.09532633618163e-08 2.74333146402874e-25 2.42294684975273e-06 2.62116790482837e-25 2.47382181978451e-06)
(1.39384965030503e-06 6.55624181487621e-09 1.62454506342806e-24 1.34261981235874e-06 -1.79392778702406e-25 1.36603292409455e-06)
(1.1321110357533e-06 3.53300694021459e-09 -2.03255650118555e-23 1.09745934136854e-06 3.1143809925647e-23 1.1135904827881e-06)
(9.54398740194385e-07 2.44628201447506e-09 -2.05694107960423e-23 9.28674743103295e-07 1.71859057686874e-23 9.40736662033416e-07)
(8.85995533219903e-07 2.20507360834639e-09 -2.31574938378399e-25 8.64354967403591e-07 4.51588558012269e-27 8.74546260495709e-07)
(9.46316682607184e-07 2.48646909141734e-09 -4.03800402080524e-29 9.23374068233348e-07 3.62347309445493e-29 9.34153705490476e-07)
(1.13004400530845e-06 3.2853088561912e-09 9.37947899690556e-27 1.10093925312354e-06 -3.70169173680366e-28 1.11452633865685e-06)
(1.46759587155009e-06 4.94299068605477e-09 3.08150587360621e-26 1.42415872889107e-06 -3.53687990122565e-25 1.44420010101678e-06)
(2.06198591364573e-06 8.49488230584991e-09 -7.6397855648677e-25 1.98739397847903e-06 2.47339609698254e-25 2.02117300719628e-06)
(3.04809036196287e-06 1.58436250268717e-08 2.5846781602544e-26 2.91015977292029e-06 -8.50526930805435e-28 2.97107301101715e-06)
(4.58028685983685e-06 3.05074962066386e-08 -1.06734532991123e-24 4.32480492564817e-06 -8.85657437506058e-27 4.43418840511179e-06)
(6.78505412659249e-06 5.98045684237419e-08 3.05400448595515e-24 6.33317999794288e-06 7.71797923355019e-25 6.51994398626462e-06)
(9.83026687028996e-06 1.17361442831166e-07 -1.64904493371656e-24 9.07442620608978e-06 -1.31979457581528e-24 9.37469764708085e-06)
(1.38352690439698e-05 2.25383751163513e-07 -1.94565636160679e-24 1.26524210291982e-05 -2.43082137180438e-24 1.31022246780249e-05)
(1.88032701688666e-05 4.15546042329264e-07 9.94536599110332e-24 1.70841566465335e-05 2.47609202399904e-24 1.77051623387939e-05)
(2.46388531004686e-05 7.27657088996275e-07 -1.18976848242072e-23 2.2322943714358e-05 2.47476425477493e-24 2.31053790151753e-05)
(3.13778733983134e-05 1.20021055676754e-06 -1.29190685026714e-23 2.84699938321706e-05 1.64259890610328e-23 2.93617884790488e-05)
(3.8795766238721e-05 1.85035935504407e-06 1.61543750160576e-23 3.54342596990701e-05 1.86124737226353e-23 3.6314818619681e-05)
(4.61823933063209e-05 2.64478965153492e-06 -1.93228811744766e-23 4.27044726382999e-05 -6.22664057121861e-25 4.33683301606819e-05)
(5.29151462691682e-05 3.52255652819241e-06 -3.81104619230928e-22 4.97907880074563e-05 -1.14471513698029e-22 4.99748776654517e-05)
(5.86790700350203e-05 4.52024789344609e-06 -3.8100250321011e-21 5.62481226651473e-05 -3.6153508389935e-21 5.5628137164145e-05)
(6.47963084421051e-05 5.78327839739082e-06 -3.16917731630853e-21 6.32571687712237e-05 -3.54660490739793e-21 6.14838443270192e-05)
(8.60959423366122e-05 9.00026098841592e-06 4.38530467519571e-22 8.48100552111889e-05 1.86387430372838e-22 8.08884200712713e-05)
(0.000119824761931709 1.41783628076994e-05 -3.1269147749044e-30 0.000118366072874865 -1.56592569777979e-30 0.000110951894165872)
(0.000153225588023979 1.9618000990806e-05 -7.61637834522736e-22 0.000151811486820383 -4.25486306825563e-22 0.000140332277153387)
(0.000186153482874725 2.51514079768279e-05 -2.44789004270179e-20 0.000184801556823334 -2.09740797766662e-20 0.000168976725998491)
(0.000218602978740922 3.06729919231621e-05 -2.94821040953983e-20 0.000217349509817352 -2.68827403331178e-20 0.000197062592784125)
(0.000250501804364385 3.61178019911415e-05 1.40941574911411e-21 0.000249359129706113 9.23734842940333e-22 0.000224607530092525)
(0.000281807120265142 4.14287690374077e-05 1.20813500447304e-24 0.000280788537952026 8.56447064253133e-25 0.000251665868402279)
(0.000312497345349246 4.65685616907824e-05 1.13724487321445e-24 0.000311613114908769 8.3330634323473e-25 0.000278280517218033)
(0.000342506765495857 5.1495344030047e-05 -1.46402486337098e-24 0.000341767854173441 -1.0741738433288e-24 0.000304451956988236)
(0.00037177747151013 5.6174615387417e-05 5.18623371968088e-21 0.000371194410615575 3.65417224780833e-21 0.000330174563553494)
(0.000400237813419887 6.05720010939653e-05 1.02046043887328e-19 0.000399821141196702 1.04199567522734e-19 0.000355424789098988)
(0.000427831478351502 6.46589304776016e-05 1.04220352028421e-19 0.000427591161701817 1.13225637594626e-19 0.000380184163775068)
(0.00045452602383817 6.84127584753284e-05 -7.16994282145116e-21 0.000454471213978777 -5.06070567580297e-21 0.000404448985491139)
(0.000480342678840607 7.18215129435294e-05 -1.64437848635986e-24 0.00048048138898732 -1.57880621705684e-24 0.000428256308910834)
(0.000505343449260222 7.48798042832397e-05 1.32572893432467e-24 0.000505682710235171 1.66057819022195e-24 0.000451676047061664)
(0.000529502787080134 7.75646399000552e-05 4.05050912893004e-26 0.000530049864741488 -8.93747245717181e-25 0.000474704625521016)
(0.00055232201965086 7.97975945267773e-05 1.34763610784493e-24 0.000553082217995132 1.47017329797644e-24 0.000496889809085177)
(0.000573402460971137 8.15133904028708e-05 -1.91433316373036e-20 0.000574375160261583 -1.28228330050223e-20 0.000517866174342307)
(0.000592865155738511 8.27577149178613e-05 -2.58188975545271e-19 0.000594046982085628 -3.04748288254318e-19 0.00053768447587473)
(0.00061064930334298 8.35300375023791e-05 -2.33281780714529e-19 0.000612035037589505 -3.06971563134162e-19 0.000556261185711487)
(0.000626735013496622 8.38394375657614e-05 2.27285863252195e-20 0.000628317085983508 1.42855850597469e-20 0.000573543638102579)
(0.000641115938625669 8.36998667270481e-05 1.55768480702831e-24 0.000642884776500959 2.05229031662989e-24 0.000589487665478332)
(0.000653799715303276 8.31297772592627e-05 -7.36573691847942e-25 0.0006557439417074 -1.7104750699231e-24 0.000604059071197911)
(0.000664807061070398 8.21515835602443e-05 -3.3092098596783e-20 0.000666913741723483 -1.92649925012161e-20 0.000617233926707575)
(0.000674170698502217 8.07910673736154e-05 -3.42663659186669e-19 0.000676425610177002 -4.69634582680319e-19 0.000628998680036531)
(0.000681934126868803 7.90767544375733e-05 -2.81116428301287e-19 0.000684322046260943 -4.60527067006857e-19 0.00063935005890605)
(0.000688150041787117 7.7039252918965e-05 3.66930905772918e-20 0.000690655045695391 1.93233310042552e-20 0.000648294549659403)
(0.000692878283077454 7.4710567347001e-05 -1.08756555408718e-25 0.000695484038142334 -3.08443525932339e-26 0.000655847294548751)
(0.000696183430117999 7.21234284333304e-05 -1.37554619222823e-25 0.000698873449675926 -4.24026410519957e-26 0.000662030491906076)
(0.000698132519055161 6.93107232767143e-05 -1.00610306524209e-24 0.000700890370438024 -1.71281589324845e-24 0.000666871716220733)
(0.000698792982512234 6.63050254975317e-05 7.37938503306484e-25 0.000701602407974547 1.35408770465086e-24 0.00067040228817737)
(0.000698233360974662 6.31384681920189e-05 -2.5590738079025e-25 0.000701078394920781 -4.77653468263503e-25 0.000672658172518652)
(0.000696523613878821 5.98425396890664e-05 6.58684072003276e-26 0.000699388643091094 3.96974017123142e-26 0.000673680479929797)
(0.000693739559902533 5.64481633006797e-05 7.79273568144957e-26 0.00069660959499298 8.49664394178804e-25 0.00067352002817958)
(0.000689960247063925 5.2985059887341e-05 -7.05733710512659e-25 0.000692821161011674 -1.96069599640516e-24 0.000672235011743329)
(0.000685267109163717 4.94813850389135e-05 4.22345517676508e-25 0.000688105895080901 1.79784880371814e-25 0.000669890174731175)
(0.000679738313790357 4.59631009324205e-05 1.1680375975242e-25 0.000682543167210503 8.89745837855405e-25 0.000666551133727247)
(0.000673448014769027 4.24538986578907e-05 -6.44688034294417e-25 0.000676208420208823 -2.19862000443999e-24 0.000662283315374408)
(0.000666459551951134 3.89748584174734e-05 1.15834735389242e-24 0.000669166116668313 4.26158610084447e-24 0.000657144837879301)
(0.000658827702884619 3.5544839021807e-05 -5.1949852825728e-25 0.000661472072361755 -2.0730472866145e-24 0.000651188256547402)
(0.000650594175728496 3.2180519582131e-05 5.00089728043024e-25 0.000653168714504026 2.17790444234124e-24 0.000644455630755338)
(0.000641796795859512 2.88971675904446e-05 1.06422251997073e-26 0.000644294502327636 5.09390785238125e-26 0.000636987283272629)
(0.000632472790149935 2.57087477577987e-05 -5.20032703499039e-25 0.000634887326125434 2.11229465229438e-24 0.00062882494451753)
(0.000622662721929674 2.26279575474759e-05 8.02799145150155e-20 0.000624988573620561 1.61655992722599e-20 0.000620015501447326)
(0.000612405408413756 1.96659166442094e-05 3.1563305043287e-19 0.000614637912375871 8.72286087501595e-19 0.000610605696776436)
(0.000601735309143005 1.68321527607774e-05 2.73116809084861e-19 0.00060387062480155 1.69096232547735e-18 0.000600639194884018)
(0.000590675803027588 1.41346269273608e-05 -4.26447892301484e-20 0.000592710685931189 8.22223643851175e-19 0.000590149493824275)
(0.00057923905478562 1.15801553922126e-05 -8.05270184673255e-20 0.000581170622860556 -1.06745580511951e-20 0.000579159487763004)
(0.00056743034374735 9.17472537095446e-06 -1.9126611289741e-24 0.000569255961853673 1.42953870171006e-23 0.000567685621837349)
(0.000555248354063042 6.92372360127023e-06 -1.63079125582742e-24 0.000556965558396029 -5.37280867990481e-24 0.000555738079552553)
(0.000542688087019879 4.83195728306832e-06 8.74280597961642e-20 0.000544294529074177 7.92389784872024e-21 0.000543323506086341)
(0.000529730347707834 2.90401673236881e-06 1.21781158745276e-19 0.000531223595794492 8.53019650840016e-19 0.000530434421342102)
(0.000516347460060274 1.14417401912162e-06 -6.45555168905572e-20 0.000517724788840722 8.27014653056371e-19 0.000517054632550473)
(0.000502476768569782 -4.42376570016151e-07 -8.40661587441443e-20 0.000503734652668519 -4.2014757970575e-21 0.000503132855479612)
(0.000488049469224607 -1.8502734523334e-06 -1.12671654038785e-24 0.000489183434367493 -8.52172539820842e-25 0.000488611158288678)
(0.00047293133402915 -3.0711466758974e-06 2.55138980557644e-24 0.000473935068607446 -1.9395797445274e-23 0.000473366250997056)
(0.000456995155921929 -4.09646024880719e-06 3.40778660707712e-24 0.000457860337332732 1.99823056189068e-23 0.000457281130530162)
(0.000439978164704002 -4.91129340239431e-06 -3.04357543647908e-24 0.000440692780764325 -1.72312459214966e-23 0.000440103558925325)
(0.000421656065871581 -5.50084817413547e-06 -4.67446432725589e-24 0.000422205728319173 4.37771176537443e-23 0.000421619010604152)
(0.000401522287593677 -5.83947415384525e-06 3.65213437525879e-24 0.000401885955402508 -2.61668420609347e-23 0.00040133053305654)
(0.000379170266023984 -5.90175725532507e-06 -8.7595464596807e-26 0.000379325476926498 -2.54659473087846e-23 0.000378841640644354)
(0.000353923734218211 -5.65566892982603e-06 7.75389040896428e-25 0.000353840711822851 3.8399289355245e-23 0.000353483057847872)
(0.00032658120210191 -5.08447572624316e-06 9.31993913901416e-25 0.000326224820993709 -1.26420205126531e-23 0.000326057847263109)
(0.000290817063908677 -4.06187645920766e-06 -3.00481621828695e-24 0.000290100819502408 -5.73572429582723e-25 0.000290208380259781)
(0.000266857825854962 -2.87740227421992e-06 2.31538025454466e-23 0.000265843046418028 -2.47796638742461e-22 0.000266228095569622)
(0.000281659655055123 -2.88787433678929e-06 3.64409996138226e-22 0.000280352539002121 -2.08371093345744e-21 0.000280816395015967)
(0.000304521855004185 -3.52945097661874e-06 5.05082336116703e-22 0.000302081597239812 -3.30285623948075e-21 0.000303018734360534)
(0.000334549424171414 -4.51174500918024e-06 1.11932227792245e-22 0.000330034375437622 2.01885599790426e-21 0.00033179113020124)
(0.000363561537912551 -5.64646995339156e-06 3.55366078932313e-21 0.000355707958962086 -6.37701678420071e-21 0.000358835364431807)
(0.000394129123115852 -6.79961436554543e-06 3.04303597161761e-21 0.000381492353249111 -6.50862476546287e-21 0.000386537113182688)
(0.000427014310025477 -7.88354943082987e-06 -4.55192686079144e-21 0.000407958563698804 6.148277564896e-21 0.00041551824190397)
(0.000466100295310061 -8.97254510769417e-06 5.8848748246011e-21 0.000438467923934518 -5.76156126533818e-21 0.000449215602578712)
(0.000505169497449298 -9.96974759090606e-06 -5.74867304404854e-21 0.00046704078151184 5.46020933817813e-21 0.000481431625127456)
(0.000542875217014182 -1.09087400681685e-05 -5.51506363636641e-21 0.00049259678807367 4.88191517859735e-21 0.000510791287218504)
(0.000575196369378247 -1.17858662332683e-05 2.74154324948903e-21 0.000511907651343074 -2.65333180249678e-21 0.000533658804952015)
(0.000599750300382481 -1.26864371758306e-05 -4.31123705706046e-21 0.000523388931828698 2.42962624709973e-21 0.000548061521088401)
(0.000606798292089831 -1.34322690992565e-05 4.69970751662626e-21 0.000519685678846743 -3.2995293525456e-21 0.000545985263393061)
(0.00060311523397166 -1.38155327108519e-05 5.03850753654415e-21 0.000507803435744711 -2.7858877004639e-21 0.000534673788883886)
(0.0005956708160915 -1.37672620938538e-05 5.29206526173352e-21 0.000493902451295672 -2.3376142862847e-21 0.000520807479051876)