/*--------------------------------*- C++ -*----------------------------------*\
| =========                 |                                                 |
| \\      /  F ield         | OpenFOAM: The Open Source CFD Toolbox           |
|  \\    /   O peration     | Version:  2.4.0                                 |
|   \\  /    A nd           | Web:      www.OpenFOAM.org                      |
|    \\/     M anipulation  |                                                 |
\*---------------------------------------------------------------------------*/
FoamFile
{
    version     2.0;
    format      ascii;
    class       volVectorField;
    location    "18000";
    object      U;
}
// * * * * * * * * * * * * * * * * * * * * * * * * * * * * * * * * * * * * * //

dimensions      [0 1 -1 0 0 0 0];

internalField   nonuniform List<vector> 
15600
(
(0.0619505592023548 0.000632910478660159 1.03763249352564e-22)
(0.0743355489295113 -0.00136067782671832 1.98020730095667e-19)
(0.0433599533248804 -0.0051586759742489 0)
(-0.0122789435669904 0.00212023164800956 8.96914412585616e-19)
(-0.0304091891580373 0.012979012557324 1.17191954086146e-22)
(-0.0209577809269848 0.0123471987902052 -4.00487107775847e-21)
(-0.0124636415302042 0.00872354516009006 2.74769506376291e-19)
(-0.00900174684561143 0.00692078489887689 -1.49586383959935e-19)
(-0.00662285403213441 0.00539282652618379 2.15170226930097e-17)
(-0.00525827349302691 0.00436440775232835 4.23488028961081e-18)
(-0.00420737696358555 0.00348885336841145 1.86638754526918e-23)
(-0.00375999016659081 0.00308812444351995 -2.10077018697111e-23)
(-0.00359621854814461 0.00293931946680762 4.61506403803765e-23)
(-0.00381826802068463 0.00310598071665769 -1.07521911040584e-19)
(-0.00449388229341764 0.00362221532438602 -1.26703619265116e-19)
(-0.0056357565127043 0.00448380666590143 -1.49072889523935e-22)
(-0.0070791850153226 0.00553711421318252 -1.67517095869843e-19)
(-0.00863014067858633 0.00655526453732242 3.99320048380989e-19)
(-0.0102212326964109 0.0074172600083474 -2.43236857385108e-19)
(-0.011677352814702 0.00794707968431023 -3.0257912527982e-19)
(-0.0127736371987681 0.00797370307238917 3.7293363009514e-19)
(-0.0135091400762934 0.00751051006656722 -4.47318729456411e-19)
(-0.0140354415917591 0.00673901789943455 -9.85538751043639e-23)
(-0.0141953640693808 0.00569233507346821 5.87688500659357e-19)
(-0.0138771705780307 0.00442487095697651 0)
(-0.0131912079961745 0.00306348674145719 0)
(-0.0113643325409957 0.0016060069148931 -4.95578323393728e-17)
(-0.0128040468087176 0.000673078573970842 -4.28405815045843e-17)
(-0.0208278674584515 0.000268668522661427 1.15760607955134e-25)
(-0.0288861313874092 0.000287463195935401 3.35676217687985e-33)
(-0.0349299963630108 0.000310502703758162 0)
(-0.0400634711645478 0.000324065144852133 -4.78843652652573e-17)
(-0.0442822329042293 0.000334913101117176 -5.75544146010001e-17)
(-0.0478515672639169 0.000340894092298321 0)
(-0.0508675686507756 0.000343780892841765 0)
(-0.0534373860114912 0.000343143253224094 0)
(-0.0556189504621977 0.000339582598404805 0)
(-0.0574622155736478 0.000333217590370603 -1.68574336979697e-21)
(-0.0589997302358114 0.000324429744387714 1.49187860550042e-16)
(-0.0602578932205996 0.00031347122146095 1.72134925347111e-16)
(-0.0612562775441258 0.000300661072264012 -2.18952555024635e-21)
(-0.0620113985680152 0.000286276052238858 -2.76111724397088e-21)
(-0.0625367979791409 0.000270729091545252 2.75669328310341e-21)
(-0.0628433778273953 0.000254470301033881 -3.37424202331218e-21)
(-0.0629385492054505 0.000237562940066243 3.37219347014488e-21)
(-0.062833885105993 0.000220000400345984 0)
(-0.0625398829759751 0.000202088323467213 -3.6166475966648e-16)
(-0.0620675797820957 0.000184061139114955 -3.93719246151001e-16)
(-0.0614284969915695 0.000166096892545407 -4.88477494937971e-21)
(-0.0606341372482944 0.000148345780696453 2.53227165452033e-21)
(-0.0596960281104229 0.000130935703028782 -2.88824901144212e-21)
(-0.0586256992240781 0.000113973982278553 5.96505336896338e-21)
(-0.0574346441277076 9.75493012416554e-05 -5.26562600028683e-16)
(-0.0561342712462058 8.17333587685183e-05 -5.59447634292231e-16)
(-0.0547358338843655 6.6582172715319e-05 -1.72587570795127e-21)
(-0.0532503477771732 5.21373121679639e-05 0)
(-0.0516885185174153 3.84282701052368e-05 1.14017655196751e-31)
(-0.0500606642260149 2.54714000049711e-05 -1.04847440509068e-21)
(-0.0483767153160923 1.32778125302091e-05 1.60028892610412e-21)
(-0.0466462129411105 1.84650502571501e-06 -5.49998223775949e-22)
(-0.0448784038431934 -8.8186002280809e-06 0)
(-0.0430822967124815 -1.87244581474279e-05 1.23644315096343e-21)
(-0.0412665134893224 -2.78775735489762e-05 -1.24184153702265e-21)
(-0.039439168402752 -3.62984569706717e-05 1.5239528992642e-31)
(-0.037607752801787 -4.40037403659991e-05 0)
(-0.0357790683768829 -5.10252968632998e-05 -2.84133437470603e-21)
(-0.0339592303902149 -5.73850824731456e-05 2.85438059131221e-21)
(-0.0321537708472304 -6.31191615501427e-05 0)
(-0.030367711955316 -6.82515274394711e-05 0)
(-0.0286058971525261 -7.28109069865462e-05 0)
(-0.0268729929459628 -7.68201165400667e-05 0)
(-0.0251734556502464 -8.03116328231165e-05 0)
(-0.0235113738690142 -8.33170481877792e-05 1.1424685793659e-15)
(-0.0218904584937406 -8.58755235530788e-05 2.3335689764259e-15)
(-0.0203140030038397 -8.80264796484633e-05 1.18992001169305e-15)
(-0.0187851716753799 -8.98066715304343e-05 -2.93184397388809e-20)
(-0.0173070435242717 -9.1258615476348e-05 1.48507227526672e-20)
(-0.0158828470773413 -9.24176982014374e-05 -1.54169900620942e-20)
(-0.0145157225432215 -9.33402628127916e-05 1.54776864404354e-20)
(-0.0132092684733986 -9.40581315554338e-05 1.33120803782299e-15)
(-0.0119669219796735 -9.46542148723321e-05 1.3427281946921e-15)
(-0.0107935583906437 -9.51414363045809e-05 -1.6376046634899e-20)
(-0.00969395154540325 -9.56482932578401e-05 1.68911928541304e-20)
(-0.00867633155120658 -9.61487941124743e-05 -3.41143467423937e-20)
(-0.00774871821182963 -9.68834677586192e-05 1.72207593032599e-20)
(-0.00692618714481448 -9.77678585163987e-05 -3.54112428713326e-20)
(-0.00622436231618064 -9.91513958818901e-05 7.14297665276477e-20)
(-0.00567046622601915 -0.000100853679722824 -3.60095480075996e-20)
(-0.00529907176206013 -0.000103376174735894 -3.6915799256045e-20)
(-0.00515647374703819 -0.00010664292251323 7.43509737107202e-20)
(-0.00532148667636 -0.000110591578952258 -3.73787500735887e-20)
(-0.00584291843670966 -0.000116073104359713 -4.63227029528079e-24)
(-0.00737037025256191 -0.000329847592891511 0)
(-0.00782689153874412 -0.000956258504227259 3.88957778543464e-20)
(-0.0072484985599865 -0.00138628917337627 -9.95538732984123e-18)
(-0.00634087339730572 -0.00161599538195948 -4.55402279795619e-22)
(-0.00470766488233795 -0.00138977275144749 -1.91746343697389e-17)
(-0.00260753089253623 -0.000684840884634176 -1.88739640191762e-17)
(0.000104054792708159 0.00066311534296098 1.82658043118445e-17)
(0.00366967640194977 0.00285181260213916 -1.75238581814949e-17)
(0.00804197886459386 0.00588423719362733 1.67481735447626e-17)
(0.0131181692706903 0.00963157075204736 1.59963120104622e-17)
(0.0187386711800839 0.0139005174190874 0)
(0.0248013925615956 0.0184794765017168 0)
(0.0305942122228603 0.0228062760526942 -1.38616701250982e-17)
(0.0357161358914021 0.0267516506228346 -1.31313039966123e-17)
(0.0406586024193409 0.0307460873364585 -1.23496588788008e-17)
(0.0457485105229681 0.0350656741014123 -1.14955791137719e-17)
(0.0514565671669779 0.0400828104987914 -1.05577772474093e-17)
(0.0585716416228716 0.0464194107080158 9.48743811277268e-18)
(0.0693903222488378 0.0553434241741096 8.2552760977666e-18)
(0.0851266311233211 0.066406689817512 -6.84005442427791e-18)
(0.105589028668685 0.0781367845726208 5.13127854863199e-18)
(0.1349582580077 0.0907175740731503 3.07579064544175e-18)
(0.173737570391144 0.0994835397197833 -3.82499076530484e-19)
(0.218787343495023 0.0943049593866323 0)
(0.214408882341779 0.05646949462993 -3.2866688689964e-18)
(0.149851747509313 0.0187414991265497 0)
(0.0777453352443664 0.00296617130824403 4.11000630816547e-19)
(0.0504565082675772 0.000776245698878909 0)
(0.216856241512589 -0.000376641740259123 0)
(0.233228576789626 -0.00473223182554865 8.2396799162078e-22)
(0.164181860391291 -0.0153636337852964 3.66331468178977e-22)
(0.0149012895936048 -0.000197711945212997 -8.62250696042787e-16)
(-0.066520459846888 0.0321963488190103 -4.27309989168459e-16)
(-0.054678701650524 0.0334602638583098 6.48890538661145e-19)
(-0.0340071846929454 0.0243949096137593 6.72328507646401e-24)
(-0.0248057138659106 0.0196074933537584 2.25010868232616e-19)
(-0.0186940896818602 0.0155424955953413 -3.26455824648355e-17)
(-0.0151516723389497 0.0127481718486381 -6.34576176609892e-18)
(-0.0125589020829364 0.010411027474693 -3.07669533501831e-24)
(-0.0115277064514897 0.00937528035276217 5.26079446289176e-23)
(-0.0113583375706042 0.0090986274933974 -5.50854483200694e-23)
(-0.0122758305420181 0.00974660936926061 -1.64749741832554e-19)
(-0.0144434353943066 0.0113994142346271 3.81432658312259e-19)
(-0.0178121452236217 0.0139951872891508 -2.00090436017017e-22)
(-0.0219176113608604 0.0170751015907658 2.4595217245657e-19)
(-0.0262693602164216 0.0200030072905581 -2.8950552790839e-19)
(-0.0306631396419903 0.0224143272848703 6.27235425781469e-22)
(-0.0347021674164109 0.0238377627813616 -8.97513534323174e-22)
(-0.037995695330044 0.0238844843745144 -5.11581282620444e-19)
(-0.0406218054539121 0.0226156218023996 6.05024763576787e-19)
(-0.0428500317592883 0.0204506712388291 6.92390167209945e-19)
(-0.0443837264947198 0.0174873701565103 -1.44667454977017e-21)
(-0.0450379045163517 0.0138663754682611 4.15965507140506e-19)
(-0.0450019261483697 0.00987588157666622 -4.32667662718393e-19)
(-0.0447047281932028 0.00589483795895597 6.3230457441309e-17)
(-0.0526304641383684 0.00313049290653461 5.01796271689422e-17)
(-0.0726726666864182 0.00171584505267216 -2.59199611951238e-25)
(-0.0914333762755968 0.00135983607728096 -3.61933363069868e-33)
(-0.105310549578295 0.00103368674423334 0)
(-0.116622509201945 0.000784591295218209 4.9621650415755e-17)
(-0.125703432777102 0.000591682204068712 5.67726108352446e-17)
(-0.133171828091887 0.000437931412389864 3.14371527592358e-21)
(-0.139304888904974 0.000314661417555351 -1.68327538436898e-21)
(-0.144351488312033 0.000212722554045975 -2.36811016510042e-21)
(-0.148459780697872 0.000127433698364378 2.32796946641347e-21)
(-0.151749212351603 5.47282120148274e-05 2.12171136715684e-32)
(-0.154302920142577 -7.84120917107767e-06 -1.39618828886801e-16)
(-0.15618791039662 -6.2250739841306e-05 -1.56469774079284e-16)
(-0.157456509280397 -0.000109766108742455 0)
(-0.158153390986611 -0.00015135889279084 2.50195299122267e-21)
(-0.158317645320153 -0.000187965557762927 2.75606854646107e-22)
(-0.157984259345091 -0.000221472530441236 -2.74362682211827e-21)
(-0.157175713073809 -0.000251851076496502 -3.29863602274803e-21)
(-0.155920083129171 -0.000278423762754458 6.86136901179219e-21)
(-0.15425213573885 -0.000301543007361824 3.22730090130852e-16)
(-0.152201528479314 -0.000321509503706207 3.45912242220287e-16)
(-0.149797831991972 -0.000338532074678238 4.15711852425728e-21)
(-0.147069759223225 -0.000352831673314383 0)
(-0.144045306831082 -0.000364602761215903 -2.54573124224379e-21)
(-0.140751769748076 -0.000374023072326625 2.55185845583153e-21)
(-0.137215724028644 -0.00038125725403336 4.66627290364515e-16)
(-0.133462983589953 -0.000386461620038296 4.93116627652055e-16)
(-0.129518523933836 -0.000389788736864955 -1.60818132714834e-21)
(-0.12540639516531 -0.000391389746046717 -7.84300568711957e-23)
(-0.121149655090751 -0.000391412254035381 -7.82513407844298e-23)
(-0.116770325396414 -0.000390002481208433 1.79973155931916e-21)
(-0.112289458242219 -0.000387284806420617 -4.92736862269086e-22)
(-0.107727215027428 -0.000383379617779249 4.97153271967521e-22)
(-0.103103040269809 -0.000378364973569896 -5.4061312704661e-22)
(-0.0984356762537514 -0.000372339423412857 5.4611606632408e-22)
(-0.0937429115785585 -0.000365398215581646 2.36066677048835e-21)
(-0.0890413879122248 -0.000357672693213689 -2.38716926580779e-21)
(-0.0843464533691749 -0.000349276587847572 0)
(-0.0796720992964043 -0.000340354162791953 0)
(-0.0750310597965149 -0.000330998438389733 0)
(-0.0704350209678691 -0.000321317280348297 0)
(-0.0658948802385155 -0.000311345554250346 0)
(-0.0614212430279733 -0.000301109703455729 0)
(-0.0570243807380164 -0.0002906151970972 0)
(-0.0527141091229104 -0.000279900681946995 1.33343267193925e-20)
(-0.0484995564166961 -0.000269000034860697 -1.13418106323877e-15)
(-0.0443891715937716 -0.000257958841121846 -2.35433727956534e-15)
(-0.0403907828004442 -0.000246793528828935 -1.22149413867928e-15)
(-0.0365121422221702 -0.000235479556179924 -3.01914581658292e-20)
(-0.0327610337965091 -0.000223985211113684 -2.65376736248365e-22)
(-0.0291456799914474 -0.000212238440244502 1.59506396219391e-20)
(-0.0256743931372247 -0.000200204375763965 1.67143660927836e-20)
(-0.0223566490343654 -0.000187736709998176 -1.41640345962054e-15)
(-0.0192021040142574 -0.000174781930515749 -1.47400575935243e-15)
(-0.016223845537675 -0.000160982203305583 1.79966567845356e-20)
(-0.013435544147318 -0.000146239214847545 0)
(-0.0108589448915982 -0.000129797341105153 3.8610690878697e-20)
(-0.00851651241644544 -0.000111633835134469 -3.9184493687815e-20)
(-0.00644746125647472 -9.02615777554155e-05 -4.07741353777577e-20)
(-0.00469404033734164 -6.52177406944183e-05 4.1383762633062e-20)
(-0.00332767767953307 -3.33687546079634e-05 0)
(-0.00243878317692132 6.09513873408307e-06 0)
(-0.00215176447798483 5.74838964573638e-05 4.5335732480425e-20)
(-0.00265881197537241 0.000126896870695658 -9.19966752458521e-20)
(-0.00421461830273967 0.00023700034416875 4.66351288070595e-20)
(-0.0078762674418983 -4.07397107556595e-06 0)
(-0.00866168559182091 -0.00108682874876092 2.30132917248784e-22)
(-0.00696010727031512 -0.00156720792759493 0)
(-0.00426516187723466 -0.00149337295852346 1.20131159557986e-17)
(-1.99738367805675e-05 -0.000294215475953654 -2.35548238998732e-17)
(0.00531995038687341 0.00209963370146703 -4.45402540002494e-20)
(0.0119979665656155 0.00605316440383427 4.18691308106939e-20)
(0.0204947366636503 0.0119828507741612 4.00013649832532e-20)
(0.0306847458675399 0.0198792822228925 -1.93324969292901e-17)
(0.0424090631272535 0.0294561701565657 -4.01254434158381e-20)
(0.0553649530959313 0.0402874426876261 -1.73078074311875e-17)
(0.0693851327041762 0.0518976028322105 0)
(0.0832357788785676 0.0631502091732317 0)
(0.0960705799676445 0.0737514034008635 1.50658763177822e-17)
(0.108479861166669 0.0845313183633697 1.43010865539965e-17)
(0.121111366171898 0.0961487061875627 1.34445333398992e-17)
(0.134917504013693 0.109464968253164 3.50906140078998e-20)
(0.151447197481781 0.12585571276604 -1.12304058017706e-17)
(0.175081365337843 0.147884370711673 -1.94224462242037e-17)
(0.209047942451402 0.174524711162202 0)
(0.254037713678991 0.202316071782098 0)
(0.316880621565716 0.230213850237307 -3.24464433654316e-18)
(0.399226574387125 0.24770544732797 -2.79318676961073e-19)
(0.498645545856006 0.234699757493695 -2.98968540148538e-18)
(0.533099957571039 0.154711082474738 3.27650436737622e-18)
(0.451382490628387 0.0623265007729515 0)
(0.305657776534948 0.0119569691076964 0)
(0.220569636768402 0.000636902060731988 0)
(0.38134122602055 -0.00212339471887852 0)
(0.38490567449604 -0.00836308057057973 -1.66000191992069e-19)
(0.302469465214233 -0.0262000817336837 0)
(0.0901847487250179 -0.013439541913652 6.76739546060438e-16)
(-0.0773615349665361 0.0407486547453311 4.0449268355767e-16)
(-0.0816969462968444 0.0493144305091253 -6.65380621560982e-19)
(-0.0532889069510082 0.0373153526156472 0)
(-0.0392413061295226 0.030443271386604 -2.14044741617602e-23)
(-0.0301161850621454 0.0246593975556905 1.23781336532394e-19)
(-0.0247830814445691 0.0205861441468861 -2.73073427857893e-20)
(-0.0210264094216171 0.0172687146692576 2.80885236778362e-23)
(-0.0196359063238614 0.0159026344827067 -3.22329191277565e-23)
(-0.0197003439571297 0.0157956686043531 0)
(-0.0215051755511581 0.0171828018718058 1.65515094866284e-19)
(-0.0252658785596764 0.0201461729616503 1.71315847789343e-21)
(-0.0308022044712595 0.0244878392636468 -2.19714983089338e-22)
(-0.0373689301442397 0.0294401328391578 2.20716854794478e-22)
(-0.0442389259144917 0.0340164675485087 0)
(-0.0510755347789718 0.0376260775190861 0)
(-0.0573700571282396 0.0396133300528465 0)
(-0.0627537708692803 0.0395355858460146 0)
(-0.0674269081820683 0.0375111774908424 -5.11871868949947e-19)
(-0.0716958997709087 0.034068509498539 -5.70848689477101e-19)
(-0.075281786775567 0.0293758161433445 1.2398752106584e-21)
(-0.0781203408942622 0.0236449141507459 -4.87435916610483e-21)
(-0.0808133491237314 0.0173288029851418 6.50864905671219e-19)
(-0.085340305394159 0.0110855463404131 3.11946568665121e-19)
(-0.0995170945444509 0.00618320521828036 1.01568745788521e-21)
(-0.124455526144504 0.00372857006762218 1.74292791115393e-25)
(-0.145795700749331 0.00299793565264447 0)
(-0.160925321990162 0.00231023628392639 0)
(-0.172668086097031 0.00183666942462686 0)
(-0.181700195920124 0.00148299339583644 0)
(-0.188786458395694 0.00121023356147417 0)
(-0.194297905969237 0.000992584112825285 0)
(-0.198536228016863 0.000811210308427724 0)
(-0.201688869499106 0.000655517435411049 0)
(-0.203902130582301 0.000517744004502306 0)
(-0.205280533936254 0.00039322911635355 1.05990723078696e-21)
(-0.205907448400839 0.000278626818137301 -1.0391414418932e-21)
(-0.205848460761787 0.000171881550582901 1.31396952313479e-21)
(-0.205158109050622 7.15140322135602e-05 -1.29299209855774e-21)
(-0.203881803633678 -2.3463020603458e-05 0)
(-0.202069362358678 -0.00011386209575687 0)
(-0.199761095340369 -0.000200016718617375 1.85769414025079e-21)
(-0.196994851236199 -0.000281239698241291 1.64801704881052e-22)
(-0.193806622132569 -0.000357408325184317 -1.97822041193913e-21)
(-0.190230864286474 -0.00042868223996791 0)
(-0.186300560680171 -0.000495049477015917 0)
(-0.182047344210196 -0.000556545862641022 0)
(-0.177501648082994 -0.000613201435824871 0)
(-0.172692800854519 -0.000665055037480182 0)
(-0.16764906814752 -0.000712159832334822 1.53432567014419e-21)
(-0.162397659791472 -0.000754589695076992 -1.5324066586283e-21)
(-0.156964701785909 -0.00079244412031181 -8.49276309060644e-22)
(-0.151375199441858 -0.000825848027489391 -4.12273635749543e-23)
(-0.145653021651523 -0.000854943526783312 -4.09330838104019e-23)
(-0.139820907253017 -0.000879886364543303 9.36684149396383e-22)
(-0.133900577834316 -0.000900810818865938 0)
(-0.127912826329664 -0.000917854469053427 0)
(-0.121877700730835 -0.000931108463284815 0)
(-0.115814449796178 -0.000940723257709584 0)
(-0.109741300755757 -0.000946872813169371 1.20465123358496e-21)
(-0.103675268079184 -0.000949806328271426 3.82064162593795e-23)
(-0.0976320771107871 -0.000949760524528983 -1.26324286475005e-21)
(-0.0916261073411038 -0.000947021194073528 0)
(-0.0856705790137262 -0.000941791297909454 -2.80150074051977e-21)
(-0.0797777427133954 -0.000934283900834748 2.83099628473591e-21)
(-0.0739592142583256 -0.000924584823790683 -3.00828080504747e-21)
(-0.0682263999039682 -0.000912767369587709 -7.12545018380583e-23)
(-0.0625904337527477 -0.000898891015422026 -3.2936188628346e-21)
(-0.0570620133463748 -0.00088308404767736 6.52854189211623e-21)
(-0.0516512134162759 -0.000865476121824227 0)
(-0.0463675201363135 -0.00084620988940944 0)
(-0.0412199596280278 -0.000825360456247106 7.36153846501165e-21)
(-0.0362176841791256 -0.00080291976946068 1.33742834789126e-22)
(-0.031370080976023 -0.000778854075056633 -7.71866156345806e-21)
(-0.0266872197209941 -0.000753065038841533 -8.10542042878807e-21)
(-0.022179500273343 -0.000725481463142734 8.23605133246277e-21)
(-0.0178589018688678 -0.000695847242279242 -8.63518908426452e-21)
(-0.0137379576126275 -0.000663955887503982 -1.28871413051831e-22)
(-0.00983344502446565 -0.000629103139839843 9.07025957048042e-21)
(-0.00616332784028572 -0.000590846945229932 1.89912660584469e-20)
(-0.00275515974228234 -0.000547641537344432 2.55239369789504e-22)
(0.000361733621348469 -0.000498382297089581 -1.99498860695999e-20)
(0.00313859807129123 -0.000439725677003544 0)
(0.00552100782683332 -0.000369944423211189 -2.12961733402426e-20)
(0.00742042530501652 -0.000282238306381641 2.16788006654686e-20)
(0.00872247451091194 -0.000172770121441102 2.26800318457591e-20)
(0.00926661154506311 -2.95676196910856e-05 -2.33213723088116e-20)
(0.00879455058372145 0.000164623297435853 0)
(0.00697596177696725 0.000464593421934028 0)
(0.00277916072296531 0.00059208566649546 8.60351108694351e-19)
(0.00194704669962919 6.08641663084859e-05 6.90345799890884e-18)
(0.00414503033449306 0.000421015449719243 2.61394067720902e-20)
(0.00774452214828826 0.00150936850268227 -6.46802793786234e-18)
(0.0131616238378448 0.00397436920230653 1.0741504795138e-21)
(0.0200047632021401 0.00792223118628907 0)
(0.0285145629734569 0.0137653169579548 0)
(0.0392237632453865 0.0219221468783511 2.15062474520356e-20)
(0.0520771695877217 0.0324036658626805 -2.04071644308187e-20)
(0.0669398665448492 0.0449046827353077 1.2871354201718e-20)
(0.0835189488236667 0.0589906752329817 9.70007224396055e-18)
(0.101649289130648 0.0741347571311855 -9.39061014120955e-18)
(0.120187640105296 0.089289188160521 0)
(0.138162887930382 0.104182169661031 -8.65522628555774e-21)
(0.1559880220283 0.119623375793565 8.58392520227323e-21)
(0.174326454080494 0.136339830614968 0)
(0.194222319638957 0.155289505474631 7.96227291657062e-18)
(0.217368500079789 0.17792158390509 0)
(0.248480168099969 0.206521300098223 6.41590810286458e-18)
(0.291877119475351 0.239664109129312 -5.6562565188439e-22)
(0.348711621747067 0.273026187182835 5.27468720744813e-22)
(0.425161018422833 0.303452890808209 2.12172521910368e-18)
(0.52245123374755 0.318203966842717 1.78880653338136e-19)
(0.638821173992697 0.295780246526111 3.76110685838467e-18)
(0.707569463156749 0.205424506139901 -2.08596412201711e-18)
(0.664265363839817 0.095948820088429 0)
(0.525428974107345 0.024134704354408 -2.85039200343601e-19)
(0.414059167412784 0.00173817259795584 1.35683877559484e-22)
(0.505831672413017 0.000481140393563974 -5.7403558398923e-23)
(0.495836841931683 -0.00802692575701007 5.76221646500205e-23)
(0.420285475509349 -0.0316732343809936 -4.57244941018338e-19)
(0.189300727314729 -0.0290632219188507 0)
(-0.0576769056248048 0.0381231947071787 1.01014953099619e-18)
(-0.100491677387337 0.0605276597935887 6.56652039733959e-19)
(-0.0700031620863567 0.0478333385327427 0)
(-0.0520742101805472 0.0396034911406756 0)
(-0.040694410877748 0.0328051536297718 -1.24054618365329e-19)
(-0.0340298325056913 0.0279186222928194 2.74967466528613e-20)
(-0.0295317648766274 0.024054253457864 3.76044667024724e-20)
(-0.0280436841697767 0.0226447865331487 -3.22604435779429e-23)
(-0.028588283439575 0.0229683501050897 0)
(-0.0314461929833858 0.0252910024537452 -1.65065631441802e-19)
(-0.0368136078070672 0.0296315462095054 -1.8492684489251e-19)
(-0.0442980309400371 0.0355751400628771 2.07573532929471e-22)
(-0.0528733178149166 0.0420376571021582 -2.1972571855361e-19)
(-0.0616084603430096 0.0477305867788917 -2.4153554914326e-19)
(-0.0700369188588577 0.0518936500011472 2.70759864273282e-19)
(-0.077634067117444 0.0538282971544159 -3.04927047958679e-19)
(-0.0841614853696785 0.0531833290628637 0)
(-0.08995174627687 0.0501820445350882 3.80761968400823e-19)
(-0.0953533241890924 0.0454570220393758 7.45816882931934e-22)
(-0.100268959438929 0.0393009270856388 -4.15920613388244e-19)
(-0.104934302127764 0.0320254120122985 -2.15357491439555e-19)
(-0.110307435277222 0.0241796967637558 -2.15168390431027e-19)
(-0.118530940344957 0.0164054048401291 -9.98070262057316e-20)
(-0.134924184744656 0.00980747547144406 1.85527945748205e-20)
(-0.157800845856828 0.00643664699739887 -1.08574759822962e-25)
(-0.175826331069284 0.00517158838942983 -4.13982481882601e-22)
(-0.188441134997444 0.00400698034026347 3.82816065508e-22)
(-0.19807758002291 0.00320313215912926 0)
(-0.205351916877826 0.00259277536371585 0)
(-0.210914292717225 0.00211524213529351 -6.27429500453652e-22)
(-0.215076897717204 0.0017266240476232 6.00644152752218e-22)
(-0.218093899275453 0.00139841924257716 -8.30652229194622e-22)
(-0.220124446546542 0.0011135192091853 8.02082982478845e-22)
(-0.221293531937633 0.00086004221561059 0)
(-0.221691422408024 0.000630530227388842 0)
(-0.221390675681719 0.00041971887477827 0)
(-0.220449016190275 0.000224197261053736 0)
(-0.218915605892991 4.16845158654968e-05 7.99252272368455e-22)
(-0.216838775201803 -0.000128813093890534 -7.81373760310149e-22)
(-0.214254872693367 -0.000288531871380158 -9.37858037210317e-22)
(-0.211204364619525 -0.000438410566738566 1.92897940648131e-21)
(-0.207723739497219 -0.000578314915909349 -9.91799573430911e-22)
(-0.203845781903473 -0.000708342002012688 0)
(-0.199602807416596 -0.00082884991540608 0)
(-0.195025738111086 -0.000940046940875272 0)
(-0.190144404864747 -0.00104216610422986 0)
(-0.184987630694319 -0.00113542284459088 -7.28042983834465e-22)
(-0.179583301209289 -0.00122003273757686 -1.67454109486036e-16)
(-0.173958382840712 -0.0012962208399312 -1.77102932058294e-16)
(-0.168138912103894 -0.00136423095852911 -8.0228859630181e-22)
(-0.162149955366436 -0.00142433220611438 -8.86064724181464e-22)
(-0.156015563822386 -0.00147681792062585 8.8378421713553e-22)
(-0.149758752282028 -0.00152199410392407 0)
(-0.14340149803264 -0.00156017147414676 0)
(-0.136964847361476 -0.00159162226970166 0)
(-0.1304689860687 -0.00161660882620374 0)
(-0.123933415807239 -0.00163533195248025 0)
(-0.117376878688596 -0.00164806820896666 0)
(-0.110817148593336 -0.00165513034859598 0)
(-0.104270839309191 -0.00165692223216158 0)
(-0.0977533505567188 -0.00165383142115411 0)
(-0.0912788055838706 -0.00164629276769583 0)
(-0.0848602502047649 -0.00163462729255014 -1.40519035858356e-21)
(-0.0785098205175165 -0.00161914661646245 3.23873848886527e-16)
(-0.0722390766593579 -0.00159998714555781 3.33239259001561e-16)
(-0.0660593971428653 -0.00157725935655561 -1.51306945947694e-21)
(-0.0599819238958294 -0.00155106596197006 3.19577199854708e-21)
(-0.0540173963116271 -0.00152160068127894 -3.22746479109925e-21)
(-0.0481759872581991 -0.00148906176950693 3.39887041077241e-21)
(-0.0424673440926421 -0.00145365436508926 -3.4363666975095e-21)
(-0.0369007245344669 -0.0014154787077848 0)
(-0.0314855688177652 -0.00137451408426217 3.71944684979038e-21)
(-0.0262316157789644 -0.00133069088814176 -3.76659488266285e-21)
(-0.0211493434686036 -0.00128386126377054 0)
(-0.0162496504740026 -0.00123387564726118 0)
(-0.0115450725457282 -0.00118036029372465 0)
(-0.00704885908529402 -0.00112290456491676 0)
(-0.00277846320946092 -0.00106050070808997 0)
(0.00124716072125022 -0.000992143288468182 0)
(0.00499987298115475 -0.000915592615089456 0)
(0.00844892609380099 -0.000828915080340066 -9.61269388068178e-21)
(0.0115455360292125 -0.000727316816046548 1.96363385794134e-20)
(0.0142338112876308 -0.000607295335155581 -2.02233967378743e-20)
(0.0164263681547434 -0.000458702750972704 1.03833212468176e-20)
(0.0180091987019794 -0.000274250077363916 0)
(0.0188241415334433 -3.40660506054056e-05 0)
(0.0186080213445226 0.000288441803854632 0)
(0.0170639284925218 0.000775351322440709 -1.25016354970181e-20)
(0.0132969376909051 0.00124915396931047 -8.2422716714091e-19)
(0.0124536253746672 0.00130428733092058 -1.66695624423398e-18)
(0.0146648228758229 0.00236296857240428 3.24576084467325e-18)
(0.0184741049328596 0.00422040886565768 1.23305468440112e-20)
(0.0241809203748628 0.00750092309450903 1.2101713590147e-17)
(0.0314641153300073 0.0123373279767896 -1.14904483728747e-20)
(0.0405421869405927 0.0191299569247684 1.09534108033087e-20)
(0.051902401253064 0.0282391602929914 5.42773344059284e-18)
(0.0655524934956128 0.0396952727570217 -5.21933218129947e-18)
(0.0813731563884242 0.0532131086314526 -5.06181008511754e-18)
(0.0991047398696892 0.0683989074534234 -9.56238331283696e-21)
(0.118581994142983 0.0847412697522826 1.79726585211433e-20)
(0.138849217981275 0.101395782971528 -4.58148497586272e-21)
(0.159007568990487 0.11819540522002 9.12203239751058e-21)
(0.179388970600035 0.13589892135561 -4.6108510877602e-18)
(0.200621639597174 0.155212536646865 4.32212313604078e-21)
(0.22372048035102 0.177062389640046 -4.33377782726295e-18)
(0.250297530494379 0.202731297692633 -1.89580932045795e-21)
(0.28467876007431 0.233792952027967 1.8216205045871e-21)
(0.331408242375821 0.26846377153096 3.17219641730335e-22)
(0.391810612966284 0.302150671355653 -2.96921575500735e-22)
(0.471088050957949 0.330480740595299 0)
(0.56997007391919 0.340318512072278 0)
(0.686521960892914 0.311149872609796 -1.76225221497683e-20)
(0.767800131528996 0.219969042233621 1.22538389990967e-18)
(0.758908349296235 0.112014693234527 0)
(0.659482916427143 0.0354833659594412 1.82920253989151e-19)
(0.554684461601228 0.00746392844065328 0)
(0.586594572041398 0.00328704616222478 0)
(0.568783513287384 -0.00683977675366634 -7.3417302631814e-20)
(0.505781360671905 -0.0327295528758236 2.19513954166705e-21)
(0.286508200802007 -0.0405911380902288 -8.69239554718315e-23)
(-0.0114844310514948 0.0267734653417458 -7.89469574818539e-19)
(-0.108567446164882 0.0668253923984366 -6.27991919457087e-19)
(-0.0838578860856621 0.0560300495399192 0)
(-0.0632255106830876 0.0471114234541654 0)
(-0.0502866725781431 0.0399216072340563 -1.27789756971806e-19)
(-0.0427699406110994 0.0346856555109436 -3.14375542411768e-20)
(-0.0379320818092798 0.0306767516239817 -3.69573427142396e-20)
(-0.0365871087416699 0.0294832818948151 0)
(-0.0377816060869293 0.0304268045865875 -1.29981515503949e-19)
(-0.0417107072529244 0.033745426095157 -7.34670364101835e-22)
(-0.0484354430064386 0.0392994879160567 -1.70314556816094e-19)
(-0.0572542586165796 0.0463819176860225 1.77003886881631e-19)
(-0.0668614086660054 0.053614524209291 3.98476452307833e-22)
(-0.076206154651462 0.059525380819401 1.94502156343782e-19)
(-0.0848240743066378 0.0633497062114008 -2.07819209831944e-19)
(-0.0923705998508551 0.0645459911324334 4.14011055893808e-21)
(-0.0988602563649846 0.0629774381316888 -4.33564687605773e-22)