/*--------------------------------*- C++ -*----------------------------------*\
| =========                 |                                                 |
| \\      /  F ield         | OpenFOAM: The Open Source CFD Toolbox           |
|  \\    /   O peration     | Version:  2.4.0                                 |
|   \\  /    A nd           | Web:      www.OpenFOAM.org                      |
|    \\/     M anipulation  |                                                 |
\*---------------------------------------------------------------------------*/
FoamFile
{
    version     2.0;
    format      ascii;
    class       volVectorField;
    location    "18000";
    object      wallShearStress;
}
// * * * * * * * * * * * * * * * * * * * * * * * * * * * * * * * * * * * * * //

dimensions      [0 2 -2 0 0 0 0];

internalField   uniform (0 0 0);

boundaryField
{
    bottomWall
    {
        type            calculated;
        value           nonuniform List<vector> 
120
(
(-0.00298886974256057 -3.13470317197113e-05 -5.00646147562205e-24)
(-0.00358280485141524 5.05457906902733e-05 -9.56055171825867e-21)
(-0.0020986967029435 0.000209574967344932 -2.35098870164458e-38)
(0.000603743934302445 -0.000112918304728877 -4.42447565476016e-20)
(0.00156263732955137 -0.000645690401325891 -5.94719264596248e-24)
(0.00111358797068831 -0.00063121186489706 5.1695963530624e-23)
(0.000666620091155762 -0.000450812512103914 -1.45528448104922e-20)
(0.000473554428747966 -0.000353788271929422 7.73062594908674e-21)
(0.000336909022078011 -0.000267843255173242 -1.07438143986572e-18)
(0.000255330193246756 -0.000207704857470401 -1.9703291283568e-19)
(0.000192890980207764 -0.000157905112112031 -8.53226433564009e-25)
(0.000162830155305104 -0.000133143603312237 9.06972642965433e-25)
(0.000147750800156134 -0.000121307577400384 -1.89694853755481e-24)
(0.000149473037174194 -0.000123196910329667 4.23110146393297e-21)
(0.000168498687593073 -0.000138299142631191 4.77019418905995e-21)
(0.000203490412495105 -0.00016484086378994 5.40957208203359e-24)
(0.000246874427584224 -0.000195922453471061 5.85365324276276e-21)
(0.000289980698142376 -0.000222666539106317 -1.3441031349245e-20)
(0.000329930604701961 -0.000241180754513296 7.85932126950536e-21)
(0.00036113118057259 -0.000246763665638862 9.35221823778369e-21)
(0.000377541386115444 -0.000236137225298789 -1.09990605380438e-20)
(0.000380998579508344 -0.000212268081554895 1.25828101169274e-20)
(0.000378749591128341 -0.000182420211605942 2.82627552211612e-24)
(0.000368639620150991 -0.000148409700809177 -1.5217467206434e-20)
(0.000349232010131686 -0.000111961893961733 3.05628531213795e-37)
(0.00032445951385938 -7.55047576712305e-05 0)
(0.000275863912423502 -3.98488905751261e-05 1.19656717189152e-18)
(0.00030930250934404 -2.15751472013397e-05 1.02800228629222e-18)
(0.00050287001186911 -1.49617268007512e-05 -2.77459894376463e-27)
(0.000697089902887651 -1.4791195577252e-05 -8.05368587754614e-35)
(0.000842950741886954 -1.43832780565764e-05 0)
(0.000966845061760257 -1.41025244750129e-05 1.15181850686073e-18)
(0.00106866171825353 -1.3836968632572e-05 1.38577206237223e-18)
(0.00115480584277291 -1.35568071048261e-05 0)
(0.00122759548500954 -1.32569448894955e-05 -2.94828891702763e-55)
(0.00128961718149625 -1.29085416230506e-05 -2.69671767811393e-53)
(0.0013422686714568 -1.25084752289926e-05 0)
(0.0013867556236328 -1.20505902139474e-05 4.06561349331351e-23)
(0.00142386346795542 -1.15379071429969e-05 -3.59931869509654e-18)
(0.00145422932787833 -1.09734411798677e-05 -4.15329708074948e-18)
(0.00147832554826503 -1.03635749963253e-05 5.28157429492692e-23)
(0.00149655064217772 -9.71484395108251e-06 6.66123539740102e-23)
(0.00150923131157063 -9.03832943377795e-06 -6.6505589676139e-23)
(0.00151663086380956 -8.34610595691494e-06 8.14116038665029e-23)
(0.00151892842141486 -7.64047269606392e-06 -8.13621657391977e-23)
(0.0015164031347799 -6.92242977129065e-06 0)
(0.00150930819873851 -6.20160136510056e-06 8.72844167753211e-18)
(0.00149791004573627 -5.4859332405451e-06 9.50214126761581e-18)
(0.00148248677520373 -4.78133744908013e-06 1.17871957091936e-22)
(0.00146331601221338 -4.0926493595116e-06 -6.11055269078008e-23)
(0.00144067597881238 -3.42399507851566e-06 6.96977837276885e-23)
(0.00141484494528131 -2.77881462527299e-06 -1.43946675759603e-22)
(0.00138610030838979 -2.15991396543309e-06 1.27085515117981e-17)
(0.00135471740910143 -1.56950579722243e-06 1.35022407771849e-17)
(0.00132096784334261 -1.00923833576583e-06 4.16494110724827e-23)
(0.0012851174715971 -4.80233954824372e-07 1.9504418074493e-41)
(0.00124742466885544 1.68324546893001e-08 -2.75181041623356e-33)
(0.00120813845514782 4.81739278164239e-07 2.53028411135509e-23)
(0.00116749849327252 9.14434304605577e-07 -3.86198492974869e-23)
(0.00112573504595682 1.31521844028783e-06 1.32731751336226e-23)
(0.00108307127011385 1.68417470305171e-06 0)
(0.00103972458034006 2.0217723963763e-06 -2.9839552570843e-23)
(0.000995903059568843 2.32857230116474e-06 2.99698328591483e-23)
(0.000951802536018085 2.6056786542435e-06 -3.67801079675351e-33)
(0.000907603806550586 2.85414238370005e-06 0)
(0.000863471020807587 3.07552981269506e-06 6.85715496851771e-23)
(0.000819551762056756 3.27104634565773e-06 -6.88863965379415e-23)
(0.000775979536449554 3.44228195403568e-06 0)
(0.000732875541557362 3.59027925309951e-06 0)
(0.000690356664307813 3.71610237318133e-06 0)
(0.000648535524623927 3.82063760654243e-06 0)
(0.000607519672775592 3.9051570585588e-06 0)
(0.000567407783759967 3.97097020325607e-06 -2.75725750933583e-17)
(0.00052828941784836 4.01964958254486e-06 -5.63187330222248e-17)
(0.000490244055794421 4.05267844878903e-06 -2.87176692891178e-17)
(0.000453348063505195 4.07132376289185e-06 7.0756185764324e-22)
(0.000417675746656914 4.0769283493306e-06 -3.58402569173802e-22)
(0.000383305028057711 4.07060682210574e-06 3.72068594177969e-22)
(0.000350311688865097 4.05402676826008e-06 -3.73533391541964e-22)
(0.000318782589272861 4.02809548511207e-06 -3.21272331935646e-17)
(0.000288800666621507 3.99497913114791e-06 -3.24052048966758e-17)
(0.000260483605022687 3.95456829809008e-06 3.9521385183946e-22)
(0.000233946589515634 3.90967948831241e-06 -4.07646054394276e-22)
(0.000209388304893366 3.85820087735054e-06 8.23303437497841e-22)
(0.000187002260162236 3.80518221462357e-06 -4.15599594123412e-22)
(0.00016715234228535 3.7449179230045e-06 8.54602040412049e-22)
(0.000150215550886513 3.68387877756832e-06 -1.72385995091296e-21)
(0.000136848941404028 3.60881410420088e-06 8.69041299445403e-22)
(0.000127886929541551 3.52836550597306e-06 8.90912833926492e-22)
(0.000124446424837233 3.42270442578045e-06 -1.79436042499272e-21)
(0.000128430018994767 3.28883729090044e-06 9.02085890633053e-22)
(0.000141137398031122 2.93038275694318e-06 1.11790163224815e-25)
(0.000178047004495001 7.65522523964114e-06 -1.83670992315982e-40)
(0.000189803912807407 2.2817353385864e-05 -9.40517737212504e-22)
(0.000178383654300575 3.30678114873866e-05 2.43930315631553e-19)
(0.000159982895106198 3.91115443554343e-05 1.1487087396918e-23)
(0.000122978964114033 3.41486630747147e-05 4.96668539686231e-19)
(7.13287938051311e-05 1.63821082896283e-05 5.08235429416695e-19)
(-1.96780534623467e-06 -2.04637810931953e-05 -5.14239901180867e-19)
(-0.000107999293775588 -8.49484961368457e-05 5.17320129965656e-19)
(-0.000249511884087714 -0.000181047616261733 -5.17950893860554e-19)
(-0.000426619069051058 -0.000308117921139767 -5.17196434811107e-19)
(-0.000636345006725671 -0.000462523515312152 -3.08449717655768e-35)
(-0.000876221029113135 -0.000638633185627031 -7.52316384526264e-37)
(-0.00112077071212895 -0.000817738235507612 5.03890368824951e-19)
(-0.00135880981530832 -0.000996903373340303 4.95899363145752e-19)
(-0.00161240973164252 -0.00119407140363534 4.86046342059275e-19)
(-0.00189870625434467 -0.00142389134548276 4.7326344931739e-19)
(-0.00224504632533893 -0.0017077957910708 4.56551339070704e-19)
(-0.00270011246095518 -0.00208261962460806 -4.32934242532091e-19)
(-0.00338490406578891 -0.00261423252288382 -3.98037444856222e-19)
(-0.00435027523394675 -0.00327284513533131 3.44731698208179e-19)
(-0.00557441281889457 -0.00396756056465399 -2.67182573235058e-19)
(-0.00723605129164654 -0.00466565529293373 -1.62788800803491e-19)
(-0.00924259484640694 -0.00507223415099983 1.99736190520772e-20)
(-0.0112450051081159 -0.0046662349159101 -1.78675141324988e-36)
(-0.0105380122539804 -0.00273779338267865 1.61839781496598e-19)
(-0.00722292743155713 -0.000955892070048216 4.70197740328915e-38)
(-0.00374006984134308 -0.000198905772688662 -1.98316924386592e-20)
(-0.00243397771551474 -5.6163961090689e-05 0)
)
;
    }
    topWall
    {
        type            calculated;
        value           nonuniform List<vector> 
120
(
(-0.00435531792365984 2.0867534367179e-05 -0)
(-0.00435274378736478 2.12073418440667e-05 -0)
(-0.00434720480322225 2.15341703795244e-05 -0)
(-0.00433894485772264 2.18464873981504e-05 -0)
(-0.00432819859196555 2.21398522949286e-05 -0)
(-0.00431523321821383 2.24123736877896e-05 -0)
(-0.00430034091168112 2.26636037201913e-05 -0)
(-0.00428381591943566 2.28936178230473e-05 -0)
(-0.0042659350684797 2.31029194294699e-05 -0)
(-0.0042469474055569 2.32922122916502e-05 -0)
(-0.00422707094925244 2.34623348967737e-05 -0)
(-0.00420648856897018 2.36141030029907e-05 -0)
(-0.00418535960708581 2.37481833333181e-05 -0)
(-0.00416381229879505 2.38653269617013e-05 -0)
(-0.00414193239621324 2.39664200933178e-05 -0)
(-0.00411977750492014 2.40522402604601e-05 -0)
(-0.00409739327138118 2.41235119782274e-05 -0)
(-0.00407481666059391 2.41810143039029e-05 -0)
(-0.00405207419468503 2.42254896970948e-05 -0)
(-0.00402918150041543 2.42576195998833e-05 -0)
(-0.00400614061178943 2.42779766894953e-05 -0)
(-0.003982946724131 2.42868552465429e-05 -0)
(-0.00395959491268072 2.42843379948494e-05 -0)
(-0.00393606701115495 2.42705549364731e-05 -0)
(-0.00391233008435085 2.42455169315244e-05 -0)
(-0.00388835157248844 2.42092906236623e-05 -0)
(-0.00386410261961056 2.41618356805441e-05 -0)
(-0.0038395754768647 2.41029621233296e-05 -0)
(-0.00381477677751258 2.40319741312324e-05 -0)
(-0.00378967383554835 2.39498623826472e-05 -0)
(-0.00376424211886612 2.3855365128558e-05 -0)
(-0.00373846878845733 2.37481641488673e-05 -0)
(-0.00371232634164113 2.36288048063068e-05 -0)
(-0.00368582101546998 2.34969806146308e-05 -0)
(-0.00365901167905604 2.33524996135931e-05 -0)
(-0.00363198483581924 2.31962943302883e-05 -0)
(-0.00360482452195427 2.30293579955697e-05 -0)
(-0.00357760315400788 2.28525005455279e-05 -0)
(-0.00355038451725904 2.26663717413654e-05 -0)
(-0.00352322781814056 2.2471531017852e-05 -0)
(-0.00349619033235072 2.22684994650468e-05 -0)
(-0.00346932872290586 2.20577951182093e-05 -0)
(-0.0034426995105293 2.18399475592182e-05 -0)
(-0.00341635910654897 2.16155057571912e-05 -0)
(-0.00339036366703039 2.13850369987721e-05 -0)
(-0.00336476887522414 2.11491266279678e-05 -0)
(-0.00333962970460114 2.09083742666145e-05 -0)
(-0.00331500020568506 2.06633908529382e-05 -0)
(-0.00329093331168266 2.04147946008403e-05 -0)
(-0.00326748068244411 2.01632075844115e-05 -0)
(-0.00324469258523268 1.99092516516754e-05 -0)
(-0.00322261780317892 1.96535457718557e-05 -0)
(-0.00320130358494146 1.93967013035767e-05 -0)
(-0.00318079561423266 1.91393209402345e-05 -0)
(-0.00316113801545139 1.88819934554648e-05 -0)
(-0.00314237337801754 1.86252939288237e-05 -0)
(-0.003124542808707 1.83697789183936e-05 -0)
(-0.00310768600493275 1.81159869729339e-05 -0)
(-0.00309184134125558 1.78644352016634e-05 -0)
(-0.00307704597811001 1.76156196096588e-05 -0)
(-0.00306333597751442 1.7370013209421e-05 -0)
(-0.00305074643359713 1.71280662685143e-05 -0)
(-0.00303931160518961 1.68902057114963e-05 -0)
(-0.00302906506116304 1.66568354045597e-05 -0)
(-0.00302003981642242 1.64283366249068e-05 -0)
(-0.00301226847749023 1.62050683861966e-05 -0)
(-0.00300578337370576 1.59873689107815e-05 -0)
(-0.00300061669759849 1.57755555417219e-05 -0)
(-0.00299680063249678 1.55699284187403e-05 -0)
(-0.00299436739448033 1.53707563504094e-05 -0)
(-0.00299335018692369 1.51783176880916e-05 -0)
(-0.00299378119976725 1.49923871409116e-05 -0)
(-0.00299569813272081 1.48137283388688e-05 -0)
(-0.0029991555310238 1.46445877499721e-05 -0)
(-0.00300419243793794 1.44848097970329e-05 -0)
(-0.00301083972038948 1.43338285051884e-05 -0)
(-0.00301912474942787 1.41917221695587e-05 -0)
(-0.00302907525939439 1.40585810663976e-05 -0)
(-0.00304072026359165 1.3934517343576e-05 -0)
(-0.0030540889747236 1.38196955888579e-05 -0)
(-0.00306920999639416 1.37143172962228e-05 -0)
(-0.00308611071785665 1.36186131530999e-05 -0)
(-0.00310481670663908 1.35328412037908e-05 -0)
(-0.00312535100000141 1.34572875100703e-05 -0)
(-0.00314773327577732 1.33922674715555e-05 -0)
(-0.0031719789263502 1.3338125976813e-05 -0)
(-0.00319809799780562 1.32952411367248e-05 -0)
(-0.00322609406479064 1.32640218930478e-05 -0)
(-0.00325596291668142 1.32449158491989e-05 -0)
(-0.00328769116059769 1.32384035034346e-05 -0)
(-0.00332125468262228 1.32450057072742e-05 -0)
(-0.00335661700448206 1.32652773579941e-05 -0)
(-0.00339372756341397 1.32998105937754e-05 -0)
(-0.00343251990493225 1.33492289835952e-05 -0)
(-0.00347290987306095 1.34141844997729e-05 -0)
(-0.00351479379402276 1.34953502031673e-05 -0)
(-0.00355804675486423 1.35934111752521e-05 -0)
(-0.00360252104915991 1.37090515859696e-05 -0)
(-0.00364804486029805 1.38429400571844e-05 -0)
(-0.00369442127545889 1.39957110614581e-05 -0)
(-0.0037414277438625 1.4167943199776e-05 -0)
(-0.00378881607579298 1.43601342531819e-05 -0)
(-0.00383631309726306 1.45726725089069e-05 -0)
(-0.00388362208946374 1.48058047375404e-05 -0)
(-0.00393042511792413 1.5059601349391e-05 -0)
(-0.00397638638406716 1.53339185087515e-05 -0)
(-0.00402115667733452 1.56283603366632e-05 -0)
(-0.00406437897787365 1.59422407466125e-05 -0)
(-0.00410569524402947 1.6274550203363e-05 -0)
(-0.00414475418285039 1.66239318472487e-05 -0)
(-0.00418121986977746 1.69886649124697e-05 -0)
(-0.00421478088192312 1.73666705905736e-05 -0)
(-0.00424515980946558 1.77556902325849e-05 -0)
(-0.00427210858375724 1.81526303604577e-05 -0)
(-0.00429547805135235 1.85543950115394e-05 -0)
(-0.00431508831685498 1.89579724805699e-05 -0)
(-0.00433078986459319 1.93596382986428e-05 -0)
(-0.00434254515349605 1.97538860878081e-05 -0)
(-0.00435043836951786 2.01379467467648e-05 -0)
(-0.00435463065062397 2.05098872218096e-05 -0)
)
;
    }
    inlet_half0
    {
        type            cyclic;
    }
    inlet_half1
    {
        type            cyclic;
    }
    outlet_half0
    {
        type            cyclic;
    }
    outlet_half1
    {
        type            cyclic;
    }
    sideRight_half0
    {
        type            empty;
    }
    sideRight_half1
    {
        type            empty;
    }
    sideLeft_half0
    {
        type            empty;
    }
    sideLeft_half1
    {
        type            empty;
    }
}


// ************************************************************************* //
